<?xml version="1.0" encoding="UTF-8"?>

<!-- generated on 04/22/19 13:59:19 by Eclipse SUMO Version 1.0.1
<configuration xmlns:xsi="http://www.w3.org/2001/XMLSchema-instance" xsi:noNamespaceSchemaLocation="http://sumo.dlr.de/xsd/sumoConfiguration.xsd">

    <input>
        <net-file value="c:\users\isaia\onedrive\documents\github\gym-sumo-envs\gym_traffic\envs\config\Y-Intersection\yIntersection.net.xml"/>
        <route-files value="tmp.rou.xml"/>
        <additional-files value="c:\users\isaia\onedrive\documents\github\gym-sumo-envs\gym_traffic\envs\config\Y-Intersection\yIntersection.add.xml"/>
    </input>

    <report>
        <no-warnings value="true"/>
        <no-step-log value="true"/>
    </report>

    <traci_server>
        <remote-port value="58818"/>
    </traci_server>

</configuration>
-->

<detector xmlns:xsi="http://www.w3.org/2001/XMLSchema-instance" xsi:noNamespaceSchemaLocation="http://sumo.dlr.de/xsd/det_e1_file.xsd">
</detector>
