<?xml version="1.0" encoding="UTF-8"?>

<!-- generated on 04/01/19 09:56:10 by Eclipse SUMO GUI Version 1.0.1
<configuration xmlns:xsi="http://www.w3.org/2001/XMLSchema-instance" xsi:noNamespaceSchemaLocation="http://sumo.dlr.de/xsd/sumoConfiguration.xsd">

    <input>
        <net-file value="c:\users\isaia\onedrive\documents\github\gym-sumo-envs\gym_traffic\envs\config\Y-Intersection\yIntersection.net.xml"/>
        <route-files value="tmp.rou.xml"/>
        <additional-files value="c:\users\isaia\onedrive\documents\github\gym-sumo-envs\gym_traffic\envs\config\Y-Intersection\yIntersection.add.xml"/>
    </input>

    <traci_server>
        <remote-port value="56949"/>
    </traci_server>

    <gui_only>
        <quit-on-end value="true"/>
        <start value="true"/>
    </gui_only>

</configuration>
-->

<detector xmlns:xsi="http://www.w3.org/2001/XMLSchema-instance" xsi:noNamespaceSchemaLocation="http://sumo.dlr.de/xsd/det_e1_file.xsd">
    <interval begin="0.00" end="1.00" id="e1det_EW_1_0" nVehContrib="0" flow="0.00" occupancy="0.00" speed="-1.00" length="-1.00" nVehEntered="0"/>
    <interval begin="0.00" end="1.00" id="e1det_NS_1_0" nVehContrib="0" flow="0.00" occupancy="0.00" speed="-1.00" length="-1.00" nVehEntered="0"/>
    <interval begin="0.00" end="1.00" id="e1det_WE_1_0" nVehContrib="0" flow="0.00" occupancy="0.00" speed="-1.00" length="-1.00" nVehEntered="0"/>
   <interval begin="0.00" end="1.00" id="e3_gneJ1" meanTravelTime="-1.00" meanOverlapTravelTime="-1.00" meanSpeed="-1.00" meanHaltsPerVehicle="-1.00" meanTimeLoss="-1.00" vehicleSum="0" meanSpeedWithin="-1.00" meanHaltsPerVehicleWithin="-1.00" meanDurationWithin="-1.00" vehicleSumWithin="0" meanIntervalSpeedWithin="-1.00" meanIntervalHaltsPerVehicleWithin="-1.00" meanIntervalDurationWithin="-1.00" meanTimeLossWithin="-1.00"/>
    <interval begin="1.00" end="2.00" id="e1det_EW_1_0" nVehContrib="0" flow="0.00" occupancy="0.00" speed="-1.00" length="-1.00" nVehEntered="0"/>
    <interval begin="1.00" end="2.00" id="e1det_NS_1_0" nVehContrib="0" flow="0.00" occupancy="0.00" speed="-1.00" length="-1.00" nVehEntered="0"/>
    <interval begin="1.00" end="2.00" id="e1det_WE_1_0" nVehContrib="0" flow="0.00" occupancy="0.00" speed="-1.00" length="-1.00" nVehEntered="0"/>
   <interval begin="1.00" end="2.00" id="e3_gneJ1" meanTravelTime="-1.00" meanOverlapTravelTime="-1.00" meanSpeed="-1.00" meanHaltsPerVehicle="-1.00" meanTimeLoss="-1.00" vehicleSum="0" meanSpeedWithin="-1.00" meanHaltsPerVehicleWithin="-1.00" meanDurationWithin="-1.00" vehicleSumWithin="0" meanIntervalSpeedWithin="-1.00" meanIntervalHaltsPerVehicleWithin="-1.00" meanIntervalDurationWithin="-1.00" meanTimeLossWithin="-1.00"/>
    <interval begin="2.00" end="3.00" id="e1det_EW_1_0" nVehContrib="0" flow="0.00" occupancy="0.00" speed="-1.00" length="-1.00" nVehEntered="0"/>
    <interval begin="2.00" end="3.00" id="e1det_NS_1_0" nVehContrib="0" flow="0.00" occupancy="0.00" speed="-1.00" length="-1.00" nVehEntered="0"/>
    <interval begin="2.00" end="3.00" id="e1det_WE_1_0" nVehContrib="0" flow="0.00" occupancy="0.00" speed="-1.00" length="-1.00" nVehEntered="0"/>
   <interval begin="2.00" end="3.00" id="e3_gneJ1" meanTravelTime="-1.00" meanOverlapTravelTime="-1.00" meanSpeed="-1.00" meanHaltsPerVehicle="-1.00" meanTimeLoss="-1.00" vehicleSum="0" meanSpeedWithin="-1.00" meanHaltsPerVehicleWithin="-1.00" meanDurationWithin="-1.00" vehicleSumWithin="0" meanIntervalSpeedWithin="-1.00" meanIntervalHaltsPerVehicleWithin="-1.00" meanIntervalDurationWithin="-1.00" meanTimeLossWithin="-1.00"/>
    <interval begin="3.00" end="4.00" id="e1det_EW_1_0" nVehContrib="0" flow="0.00" occupancy="0.00" speed="-1.00" length="-1.00" nVehEntered="0"/>
    <interval begin="3.00" end="4.00" id="e1det_NS_1_0" nVehContrib="0" flow="0.00" occupancy="0.00" speed="-1.00" length="-1.00" nVehEntered="0"/>
    <interval begin="3.00" end="4.00" id="e1det_WE_1_0" nVehContrib="0" flow="0.00" occupancy="0.00" speed="-1.00" length="-1.00" nVehEntered="0"/>
   <interval begin="3.00" end="4.00" id="e3_gneJ1" meanTravelTime="-1.00" meanOverlapTravelTime="-1.00" meanSpeed="-1.00" meanHaltsPerVehicle="-1.00" meanTimeLoss="-1.00" vehicleSum="0" meanSpeedWithin="-1.00" meanHaltsPerVehicleWithin="-1.00" meanDurationWithin="-1.00" vehicleSumWithin="0" meanIntervalSpeedWithin="-1.00" meanIntervalHaltsPerVehicleWithin="-1.00" meanIntervalDurationWithin="-1.00" meanTimeLossWithin="-1.00"/>
    <interval begin="4.00" end="5.00" id="e1det_EW_1_0" nVehContrib="0" flow="0.00" occupancy="0.00" speed="-1.00" length="-1.00" nVehEntered="0"/>
    <interval begin="4.00" end="5.00" id="e1det_NS_1_0" nVehContrib="0" flow="0.00" occupancy="0.00" speed="-1.00" length="-1.00" nVehEntered="0"/>
    <interval begin="4.00" end="5.00" id="e1det_WE_1_0" nVehContrib="0" flow="0.00" occupancy="0.00" speed="-1.00" length="-1.00" nVehEntered="0"/>
   <interval begin="4.00" end="5.00" id="e3_gneJ1" meanTravelTime="-1.00" meanOverlapTravelTime="-1.00" meanSpeed="-1.00" meanHaltsPerVehicle="-1.00" meanTimeLoss="-1.00" vehicleSum="0" meanSpeedWithin="-1.00" meanHaltsPerVehicleWithin="-1.00" meanDurationWithin="-1.00" vehicleSumWithin="0" meanIntervalSpeedWithin="-1.00" meanIntervalHaltsPerVehicleWithin="-1.00" meanIntervalDurationWithin="-1.00" meanTimeLossWithin="-1.00"/>
    <interval begin="5.00" end="6.00" id="e1det_EW_1_0" nVehContrib="0" flow="0.00" occupancy="0.00" speed="-1.00" length="-1.00" nVehEntered="0"/>
    <interval begin="5.00" end="6.00" id="e1det_NS_1_0" nVehContrib="0" flow="0.00" occupancy="0.00" speed="-1.00" length="-1.00" nVehEntered="0"/>
    <interval begin="5.00" end="6.00" id="e1det_WE_1_0" nVehContrib="0" flow="0.00" occupancy="0.00" speed="-1.00" length="-1.00" nVehEntered="0"/>
   <interval begin="5.00" end="6.00" id="e3_gneJ1" meanTravelTime="-1.00" meanOverlapTravelTime="-1.00" meanSpeed="-1.00" meanHaltsPerVehicle="-1.00" meanTimeLoss="-1.00" vehicleSum="0" meanSpeedWithin="-1.00" meanHaltsPerVehicleWithin="-1.00" meanDurationWithin="-1.00" vehicleSumWithin="0" meanIntervalSpeedWithin="-1.00" meanIntervalHaltsPerVehicleWithin="-1.00" meanIntervalDurationWithin="-1.00" meanTimeLossWithin="-1.00"/>
    <interval begin="6.00" end="7.00" id="e1det_EW_1_0" nVehContrib="0" flow="0.00" occupancy="0.00" speed="-1.00" length="-1.00" nVehEntered="0"/>
    <interval begin="6.00" end="7.00" id="e1det_NS_1_0" nVehContrib="0" flow="0.00" occupancy="0.00" speed="-1.00" length="-1.00" nVehEntered="0"/>
    <interval begin="6.00" end="7.00" id="e1det_WE_1_0" nVehContrib="0" flow="0.00" occupancy="0.00" speed="-1.00" length="-1.00" nVehEntered="0"/>
   <interval begin="6.00" end="7.00" id="e3_gneJ1" meanTravelTime="-1.00" meanOverlapTravelTime="-1.00" meanSpeed="-1.00" meanHaltsPerVehicle="-1.00" meanTimeLoss="-1.00" vehicleSum="0" meanSpeedWithin="-1.00" meanHaltsPerVehicleWithin="-1.00" meanDurationWithin="-1.00" vehicleSumWithin="0" meanIntervalSpeedWithin="-1.00" meanIntervalHaltsPerVehicleWithin="-1.00" meanIntervalDurationWithin="-1.00" meanTimeLossWithin="-1.00"/>
    <interval begin="7.00" end="8.00" id="e1det_EW_1_0" nVehContrib="0" flow="0.00" occupancy="0.00" speed="-1.00" length="-1.00" nVehEntered="0"/>
    <interval begin="7.00" end="8.00" id="e1det_NS_1_0" nVehContrib="0" flow="0.00" occupancy="0.00" speed="-1.00" length="-1.00" nVehEntered="0"/>
    <interval begin="7.00" end="8.00" id="e1det_WE_1_0" nVehContrib="0" flow="0.00" occupancy="0.00" speed="-1.00" length="-1.00" nVehEntered="0"/>
   <interval begin="7.00" end="8.00" id="e3_gneJ1" meanTravelTime="-1.00" meanOverlapTravelTime="-1.00" meanSpeed="-1.00" meanHaltsPerVehicle="-1.00" meanTimeLoss="-1.00" vehicleSum="0" meanSpeedWithin="-1.00" meanHaltsPerVehicleWithin="-1.00" meanDurationWithin="-1.00" vehicleSumWithin="0" meanIntervalSpeedWithin="-1.00" meanIntervalHaltsPerVehicleWithin="-1.00" meanIntervalDurationWithin="-1.00" meanTimeLossWithin="-1.00"/>
    <interval begin="8.00" end="9.00" id="e1det_EW_1_0" nVehContrib="0" flow="0.00" occupancy="0.00" speed="-1.00" length="-1.00" nVehEntered="0"/>
    <interval begin="8.00" end="9.00" id="e1det_NS_1_0" nVehContrib="0" flow="0.00" occupancy="0.00" speed="-1.00" length="-1.00" nVehEntered="0"/>
    <interval begin="8.00" end="9.00" id="e1det_WE_1_0" nVehContrib="0" flow="0.00" occupancy="0.00" speed="-1.00" length="-1.00" nVehEntered="0"/>
   <interval begin="8.00" end="9.00" id="e3_gneJ1" meanTravelTime="-1.00" meanOverlapTravelTime="-1.00" meanSpeed="-1.00" meanHaltsPerVehicle="-1.00" meanTimeLoss="-1.00" vehicleSum="0" meanSpeedWithin="13.45" meanHaltsPerVehicleWithin="0.00" meanDurationWithin="1.69" vehicleSumWithin="3" meanIntervalSpeedWithin="13.45" meanIntervalHaltsPerVehicleWithin="0.00" meanIntervalDurationWithin="1.00" meanTimeLossWithin="0.00"/>
    <interval begin="9.00" end="10.00" id="e1det_EW_1_0" nVehContrib="0" flow="0.00" occupancy="0.00" speed="-1.00" length="-1.00" nVehEntered="0"/>
    <interval begin="9.00" end="10.00" id="e1det_NS_1_0" nVehContrib="0" flow="0.00" occupancy="0.00" speed="-1.00" length="-1.00" nVehEntered="0"/>
    <interval begin="9.00" end="10.00" id="e1det_WE_1_0" nVehContrib="0" flow="0.00" occupancy="0.00" speed="-1.00" length="-1.00" nVehEntered="0"/>
   <interval begin="9.00" end="10.00" id="e3_gneJ1" meanTravelTime="-1.00" meanOverlapTravelTime="-1.00" meanSpeed="-1.00" meanHaltsPerVehicle="-1.00" meanTimeLoss="-1.00" vehicleSum="0" meanSpeedWithin="13.55" meanHaltsPerVehicleWithin="0.00" meanDurationWithin="2.69" vehicleSumWithin="3" meanIntervalSpeedWithin="13.72" meanIntervalHaltsPerVehicleWithin="0.00" meanIntervalDurationWithin="1.00" meanTimeLossWithin="0.04"/>
    <interval begin="10.00" end="11.00" id="e1det_EW_1_0" nVehContrib="0" flow="0.00" occupancy="0.00" speed="-1.00" length="-1.00" nVehEntered="0"/>
    <interval begin="10.00" end="11.00" id="e1det_NS_1_0" nVehContrib="0" flow="0.00" occupancy="0.00" speed="-1.00" length="-1.00" nVehEntered="0"/>
    <interval begin="10.00" end="11.00" id="e1det_WE_1_0" nVehContrib="0" flow="0.00" occupancy="0.00" speed="-1.00" length="-1.00" nVehEntered="0"/>
   <interval begin="10.00" end="11.00" id="e3_gneJ1" meanTravelTime="-1.00" meanOverlapTravelTime="-1.00" meanSpeed="-1.00" meanHaltsPerVehicle="-1.00" meanTimeLoss="-1.00" vehicleSum="0" meanSpeedWithin="13.19" meanHaltsPerVehicleWithin="0.00" meanDurationWithin="3.69" vehicleSumWithin="3" meanIntervalSpeedWithin="12.20" meanIntervalHaltsPerVehicleWithin="0.00" meanIntervalDurationWithin="1.00" meanTimeLossWithin="0.14"/>
    <interval begin="11.00" end="12.00" id="e1det_EW_1_0" nVehContrib="0" flow="0.00" occupancy="3.47" speed="-1.00" length="-1.00" nVehEntered="1"/>
    <interval begin="11.00" end="12.00" id="e1det_NS_1_0" nVehContrib="0" flow="0.00" occupancy="64.57" speed="-1.00" length="-1.00" nVehEntered="1"/>
    <interval begin="11.00" end="12.00" id="e1det_WE_1_0" nVehContrib="0" flow="0.00" occupancy="15.96" speed="-1.00" length="-1.00" nVehEntered="1"/>
   <interval begin="11.00" end="12.00" id="e3_gneJ1" meanTravelTime="-1.00" meanOverlapTravelTime="-1.00" meanSpeed="-1.00" meanHaltsPerVehicle="-1.00" meanTimeLoss="-1.00" vehicleSum="0" meanSpeedWithin="13.01" meanHaltsPerVehicleWithin="0.00" meanDurationWithin="3.16" vehicleSumWithin="6" meanIntervalSpeedWithin="11.30" meanIntervalHaltsPerVehicleWithin="0.00" meanIntervalDurationWithin="1.00" meanTimeLossWithin="0.19"/>
    <interval begin="12.00" end="13.00" id="e1det_EW_1_0" nVehContrib="1" flow="3600.00" occupancy="55.65" speed="8.46" length="5.00" nVehEntered="0"/>
    <interval begin="12.00" end="13.00" id="e1det_NS_1_0" nVehContrib="1" flow="3600.00" occupancy="4.37" speed="7.25" length="5.00" nVehEntered="0"/>
    <interval begin="12.00" end="13.00" id="e1det_WE_1_0" nVehContrib="1" flow="3600.00" occupancy="59.31" speed="6.64" length="5.00" nVehEntered="0"/>
   <interval begin="12.00" end="13.00" id="e3_gneJ1" meanTravelTime="-1.00" meanOverlapTravelTime="-1.00" meanSpeed="-1.00" meanHaltsPerVehicle="-1.00" meanTimeLoss="-1.00" vehicleSum="0" meanSpeedWithin="12.51" meanHaltsPerVehicleWithin="0.00" meanDurationWithin="4.16" vehicleSumWithin="6" meanIntervalSpeedWithin="10.42" meanIntervalHaltsPerVehicleWithin="0.00" meanIntervalDurationWithin="1.00" meanTimeLossWithin="0.21"/>
    <interval begin="13.00" end="14.00" id="e1det_EW_1_0" nVehContrib="0" flow="0.00" occupancy="0.00" speed="-1.00" length="-1.00" nVehEntered="0"/>
    <interval begin="13.00" end="14.00" id="e1det_NS_1_0" nVehContrib="0" flow="0.00" occupancy="0.00" speed="-1.00" length="-1.00" nVehEntered="0"/>
    <interval begin="13.00" end="14.00" id="e1det_WE_1_0" nVehContrib="0" flow="0.00" occupancy="0.00" speed="-1.00" length="-1.00" nVehEntered="0"/>
   <interval begin="13.00" end="14.00" id="e3_gneJ1" meanTravelTime="-1.00" meanOverlapTravelTime="-1.00" meanSpeed="-1.00" meanHaltsPerVehicle="-1.00" meanTimeLoss="-1.00" vehicleSum="0" meanSpeedWithin="11.86" meanHaltsPerVehicleWithin="0.00" meanDurationWithin="5.16" vehicleSumWithin="6" meanIntervalSpeedWithin="8.81" meanIntervalHaltsPerVehicleWithin="0.00" meanIntervalDurationWithin="1.00" meanTimeLossWithin="0.31"/>
    <interval begin="14.00" end="15.00" id="e1det_EW_1_0" nVehContrib="0" flow="0.00" occupancy="0.98" speed="-1.00" length="-1.00" nVehEntered="1"/>
    <interval begin="14.00" end="15.00" id="e1det_NS_1_0" nVehContrib="1" flow="3600.00" occupancy="71.27" speed="7.02" length="5.00" nVehEntered="1"/>
    <interval begin="14.00" end="15.00" id="e1det_WE_1_0" nVehContrib="0" flow="0.00" occupancy="0.00" speed="-1.00" length="-1.00" nVehEntered="0"/>
   <interval begin="14.00" end="15.00" id="e3_gneJ1" meanTravelTime="-1.00" meanOverlapTravelTime="-1.00" meanSpeed="-1.00" meanHaltsPerVehicle="-1.00" meanTimeLoss="-1.00" vehicleSum="0" meanSpeedWithin="11.37" meanHaltsPerVehicleWithin="0.11" meanDurationWithin="4.66" vehicleSumWithin="9" meanIntervalSpeedWithin="8.70" meanIntervalHaltsPerVehicleWithin="0.11" meanIntervalDurationWithin="1.00" meanTimeLossWithin="0.34"/>
    <interval begin="15.00" end="16.00" id="e1det_EW_1_0" nVehContrib="1" flow="3600.00" occupancy="50.13" speed="9.78" length="5.00" nVehEntered="0"/>
    <interval begin="15.00" end="16.00" id="e1det_NS_1_0" nVehContrib="0" flow="0.00" occupancy="0.00" speed="-1.00" length="-1.00" nVehEntered="0"/>
    <interval begin="15.00" end="16.00" id="e1det_WE_1_0" nVehContrib="0" flow="0.00" occupancy="8.46" speed="-1.00" length="-1.00" nVehEntered="1"/>
   <interval begin="15.00" end="16.00" id="e3_gneJ1" meanTravelTime="-1.00" meanOverlapTravelTime="-1.00" meanSpeed="-1.00" meanHaltsPerVehicle="-1.00" meanTimeLoss="-1.00" vehicleSum="0" meanSpeedWithin="10.91" meanHaltsPerVehicleWithin="0.22" meanDurationWithin="5.66" vehicleSumWithin="9" meanIntervalSpeedWithin="8.42" meanIntervalHaltsPerVehicleWithin="0.11" meanIntervalDurationWithin="1.00" meanTimeLossWithin="0.34"/>
    <interval begin="16.00" end="17.00" id="e1det_EW_1_0" nVehContrib="0" flow="0.00" occupancy="0.00" speed="-1.00" length="-1.00" nVehEntered="0"/>
    <interval begin="16.00" end="17.00" id="e1det_NS_1_0" nVehContrib="0" flow="0.00" occupancy="0.00" speed="-1.00" length="-1.00" nVehEntered="0"/>
    <interval begin="16.00" end="17.00" id="e1det_WE_1_0" nVehContrib="0" flow="0.00" occupancy="100.00" speed="-1.00" length="-1.00" nVehEntered="0"/>
   <interval begin="16.00" end="17.00" id="e3_gneJ1" meanTravelTime="-1.00" meanOverlapTravelTime="-1.00" meanSpeed="-1.00" meanHaltsPerVehicle="-1.00" meanTimeLoss="-1.00" vehicleSum="0" meanSpeedWithin="10.59" meanHaltsPerVehicleWithin="0.40" meanDurationWithin="6.11" vehicleSumWithin="10" meanIntervalSpeedWithin="8.21" meanIntervalHaltsPerVehicleWithin="0.20" meanIntervalDurationWithin="1.00" meanTimeLossWithin="0.35"/>
    <interval begin="17.00" end="18.00" id="e1det_EW_1_0" nVehContrib="0" flow="0.00" occupancy="0.00" speed="-1.00" length="-1.00" nVehEntered="0"/>
    <interval begin="17.00" end="18.00" id="e1det_NS_1_0" nVehContrib="0" flow="0.00" occupancy="59.18" speed="-1.00" length="-1.00" nVehEntered="1"/>
    <interval begin="17.00" end="18.00" id="e1det_WE_1_0" nVehContrib="0" flow="0.00" occupancy="100.00" speed="-1.00" length="-1.00" nVehEntered="0"/>
   <interval begin="17.00" end="18.00" id="e3_gneJ1" meanTravelTime="-1.00" meanOverlapTravelTime="-1.00" meanSpeed="-1.00" meanHaltsPerVehicle="-1.00" meanTimeLoss="-1.00" vehicleSum="0" meanSpeedWithin="10.37" meanHaltsPerVehicleWithin="0.50" meanDurationWithin="6.19" vehicleSumWithin="12" meanIntervalSpeedWithin="8.38" meanIntervalHaltsPerVehicleWithin="0.17" meanIntervalDurationWithin="1.00" meanTimeLossWithin="0.38"/>
    <interval begin="18.00" end="19.00" id="e1det_EW_1_0" nVehContrib="1" flow="3600.00" occupancy="52.07" speed="9.60" length="5.00" nVehEntered="1"/>
    <interval begin="18.00" end="19.00" id="e1det_NS_1_0" nVehContrib="1" flow="3600.00" occupancy="12.28" speed="7.00" length="5.00" nVehEntered="0"/>
    <interval begin="18.00" end="19.00" id="e1det_WE_1_0" nVehContrib="0" flow="0.00" occupancy="100.00" speed="-1.00" length="-1.00" nVehEntered="0"/>
   <interval begin="18.00" end="19.00" id="e3_gneJ1" meanTravelTime="9.83" meanOverlapTravelTime="10.17" meanSpeed="11.24" meanHaltsPerVehicle="0.00" meanTimeLoss="1.97" vehicleSum="1" meanSpeedWithin="9.87" meanHaltsPerVehicleWithin="0.73" meanDurationWithin="6.77" vehicleSumWithin="11" meanIntervalSpeedWithin="7.74" meanIntervalHaltsPerVehicleWithin="0.18" meanIntervalDurationWithin="1.00" meanTimeLossWithin="0.40"/>
    <interval begin="19.00" end="20.00" id="e1det_EW_1_0" nVehContrib="0" flow="0.00" occupancy="0.00" speed="-1.00" length="-1.00" nVehEntered="0"/>
    <interval begin="19.00" end="20.00" id="e1det_NS_1_0" nVehContrib="0" flow="0.00" occupancy="0.00" speed="-1.00" length="-1.00" nVehEntered="0"/>
    <interval begin="19.00" end="20.00" id="e1det_WE_1_0" nVehContrib="0" flow="0.00" occupancy="100.00" speed="-1.00" length="-1.00" nVehEntered="0"/>
   <interval begin="19.00" end="20.00" id="e3_gneJ1" meanTravelTime="10.33" meanOverlapTravelTime="10.70" meanSpeed="10.60" meanHaltsPerVehicle="0.00" meanTimeLoss="2.59" vehicleSum="1" meanSpeedWithin="9.32" meanHaltsPerVehicleWithin="1.10" meanDurationWithin="7.30" vehicleSumWithin="10" meanIntervalSpeedWithin="6.73" meanIntervalHaltsPerVehicleWithin="0.30" meanIntervalDurationWithin="1.00" meanTimeLossWithin="0.46"/>
    <interval begin="20.00" end="21.00" id="e1det_EW_1_0" nVehContrib="0" flow="0.00" occupancy="0.00" speed="-1.00" length="-1.00" nVehEntered="0"/>
    <interval begin="20.00" end="21.00" id="e1det_NS_1_0" nVehContrib="1" flow="3600.00" occupancy="52.94" speed="9.45" length="5.00" nVehEntered="1"/>
    <interval begin="20.00" end="21.00" id="e1det_WE_1_0" nVehContrib="0" flow="0.00" occupancy="100.00" speed="-1.00" length="-1.00" nVehEntered="0"/>
   <interval begin="20.00" end="21.00" id="e3_gneJ1" meanTravelTime="-1.00" meanOverlapTravelTime="-1.00" meanSpeed="-1.00" meanHaltsPerVehicle="-1.00" meanTimeLoss="-1.00" vehicleSum="0" meanSpeedWithin="9.53" meanHaltsPerVehicleWithin="1.17" meanDurationWithin="7.22" vehicleSumWithin="12" meanIntervalSpeedWithin="7.57" meanIntervalHaltsPerVehicleWithin="0.25" meanIntervalDurationWithin="1.00" meanTimeLossWithin="0.44"/>
    <interval begin="21.00" end="22.00" id="e1det_EW_1_0" nVehContrib="0" flow="0.00" occupancy="47.09" speed="-1.00" length="-1.00" nVehEntered="1"/>
    <interval begin="21.00" end="22.00" id="e1det_NS_1_0" nVehContrib="0" flow="0.00" occupancy="0.00" speed="-1.00" length="-1.00" nVehEntered="0"/>
    <interval begin="21.00" end="22.00" id="e1det_WE_1_0" nVehContrib="0" flow="0.00" occupancy="100.00" speed="-1.00" length="-1.00" nVehEntered="0"/>
   <interval begin="21.00" end="22.00" id="e3_gneJ1" meanTravelTime="9.98" meanOverlapTravelTime="10.33" meanSpeed="10.92" meanHaltsPerVehicle="0.00" meanTimeLoss="2.15" vehicleSum="1" meanSpeedWithin="9.34" meanHaltsPerVehicleWithin="1.50" meanDurationWithin="7.43" vehicleSumWithin="12" meanIntervalSpeedWithin="7.10" meanIntervalHaltsPerVehicleWithin="0.33" meanIntervalDurationWithin="1.00" meanTimeLossWithin="0.44"/>
    <interval begin="22.00" end="23.00" id="e1det_EW_1_0" nVehContrib="1" flow="3600.00" occupancy="13.60" speed="8.24" length="5.00" nVehEntered="0"/>
    <interval begin="22.00" end="23.00" id="e1det_NS_1_0" nVehContrib="0" flow="0.00" occupancy="0.00" speed="-1.00" length="-1.00" nVehEntered="0"/>
    <interval begin="22.00" end="23.00" id="e1det_WE_1_0" nVehContrib="0" flow="0.00" occupancy="100.00" speed="-1.00" length="-1.00" nVehEntered="0"/>
   <interval begin="22.00" end="23.00" id="e3_gneJ1" meanTravelTime="10.50" meanOverlapTravelTime="10.88" meanSpeed="10.42" meanHaltsPerVehicle="0.00" meanTimeLoss="2.57" vehicleSum="1" meanSpeedWithin="9.07" meanHaltsPerVehicleWithin="1.75" meanDurationWithin="7.44" vehicleSumWithin="12" meanIntervalSpeedWithin="6.73" meanIntervalHaltsPerVehicleWithin="0.25" meanIntervalDurationWithin="1.00" meanTimeLossWithin="0.47"/>
    <interval begin="23.00" end="24.00" id="e1det_EW_1_0" nVehContrib="0" flow="0.00" occupancy="0.00" speed="-1.00" length="-1.00" nVehEntered="0"/>
    <interval begin="23.00" end="24.00" id="e1det_NS_1_0" nVehContrib="1" flow="3600.00" occupancy="67.58" speed="7.40" length="5.00" nVehEntered="1"/>
    <interval begin="23.00" end="24.00" id="e1det_WE_1_0" nVehContrib="0" flow="0.00" occupancy="100.00" speed="-1.00" length="-1.00" nVehEntered="0"/>
   <interval begin="23.00" end="24.00" id="e3_gneJ1" meanTravelTime="-1.00" meanOverlapTravelTime="-1.00" meanSpeed="-1.00" meanHaltsPerVehicle="-1.00" meanTimeLoss="-1.00" vehicleSum="0" meanSpeedWithin="8.77" meanHaltsPerVehicleWithin="1.85" meanDurationWithin="7.92" vehicleSumWithin="13" meanIntervalSpeedWithin="6.51" meanIntervalHaltsPerVehicleWithin="0.23" meanIntervalDurationWithin="1.00" meanTimeLossWithin="0.49"/>
    <interval begin="24.00" end="25.00" id="e1det_EW_1_0" nVehContrib="0" flow="0.00" occupancy="33.94" speed="-1.00" length="-1.00" nVehEntered="1"/>
    <interval begin="24.00" end="25.00" id="e1det_NS_1_0" nVehContrib="0" flow="0.00" occupancy="0.00" speed="-1.00" length="-1.00" nVehEntered="0"/>
    <interval begin="24.00" end="25.00" id="e1det_WE_1_0" nVehContrib="1" flow="3600.00" occupancy="57.01" speed="0.58" length="5.00" nVehEntered="0"/>
   <interval begin="24.00" end="25.00" id="e3_gneJ1" meanTravelTime="10.03" meanOverlapTravelTime="10.41" meanSpeed="11.23" meanHaltsPerVehicle="0.00" meanTimeLoss="2.07" vehicleSum="1" meanSpeedWithin="8.44" meanHaltsPerVehicleWithin="2.00" meanDurationWithin="8.16" vehicleSumWithin="13" meanIntervalSpeedWithin="6.37" meanIntervalHaltsPerVehicleWithin="0.15" meanIntervalDurationWithin="1.00" meanTimeLossWithin="0.53"/>
    <interval begin="25.00" end="26.00" id="e1det_EW_1_0" nVehContrib="1" flow="3600.00" occupancy="25.24" speed="8.45" length="5.00" nVehEntered="0"/>
    <interval begin="25.00" end="26.00" id="e1det_NS_1_0" nVehContrib="0" flow="0.00" occupancy="0.00" speed="-1.00" length="-1.00" nVehEntered="0"/>
    <interval begin="25.00" end="26.00" id="e1det_WE_1_0" nVehContrib="0" flow="0.00" occupancy="0.00" speed="-1.00" length="-1.00" nVehEntered="0"/>
   <interval begin="25.00" end="26.00" id="e3_gneJ1" meanTravelTime="10.94" meanOverlapTravelTime="11.35" meanSpeed="9.90" meanHaltsPerVehicle="0.00" meanTimeLoss="2.20" vehicleSum="1" meanSpeedWithin="8.02" meanHaltsPerVehicleWithin="2.07" meanDurationWithin="7.81" vehicleSumWithin="14" meanIntervalSpeedWithin="6.27" meanIntervalHaltsPerVehicleWithin="0.21" meanIntervalDurationWithin="1.00" meanTimeLossWithin="0.47"/>
    <interval begin="26.00" end="27.00" id="e1det_EW_1_0" nVehContrib="0" flow="0.00" occupancy="0.00" speed="-1.00" length="-1.00" nVehEntered="0"/>
    <interval begin="26.00" end="27.00" id="e1det_NS_1_0" nVehContrib="0" flow="0.00" occupancy="0.00" speed="-1.00" length="-1.00" nVehEntered="0"/>
    <interval begin="26.00" end="27.00" id="e1det_WE_1_0" nVehContrib="0" flow="0.00" occupancy="77.17" speed="-1.00" length="-1.00" nVehEntered="1"/>
   <interval begin="26.00" end="27.00" id="e3_gneJ1" meanTravelTime="-1.00" meanOverlapTravelTime="-1.00" meanSpeed="-1.00" meanHaltsPerVehicle="-1.00" meanTimeLoss="-1.00" vehicleSum="0" meanSpeedWithin="7.85" meanHaltsPerVehicleWithin="2.07" meanDurationWithin="8.34" vehicleSumWithin="15" meanIntervalSpeedWithin="6.39" meanIntervalHaltsPerVehicleWithin="0.13" meanIntervalDurationWithin="1.00" meanTimeLossWithin="0.47"/>
    <interval begin="27.00" end="28.00" id="e1det_EW_1_0" nVehContrib="0" flow="0.00" occupancy="32.37" speed="-1.00" length="-1.00" nVehEntered="1"/>
    <interval begin="27.00" end="28.00" id="e1det_NS_1_0" nVehContrib="0" flow="0.00" occupancy="67.43" speed="-1.00" length="-1.00" nVehEntered="1"/>
    <interval begin="27.00" end="28.00" id="e1det_WE_1_0" nVehContrib="1" flow="3600.00" occupancy="86.59" speed="3.05" length="5.00" nVehEntered="0"/>
   <interval begin="27.00" end="28.00" id="e3_gneJ1" meanTravelTime="10.61" meanOverlapTravelTime="10.94" meanSpeed="10.04" meanHaltsPerVehicle="0.00" meanTimeLoss="3.24" vehicleSum="1" meanSpeedWithin="7.30" meanHaltsPerVehicleWithin="2.50" meanDurationWithin="9.14" vehicleSumWithin="14" meanIntervalSpeedWithin="5.65" meanIntervalHaltsPerVehicleWithin="0.29" meanIntervalDurationWithin="1.00" meanTimeLossWithin="0.54"/>
    <interval begin="28.00" end="29.00" id="e1det_EW_1_0" nVehContrib="1" flow="3600.00" occupancy="29.84" speed="8.04" length="5.00" nVehEntered="0"/>
    <interval begin="28.00" end="29.00" id="e1det_NS_1_0" nVehContrib="1" flow="3600.00" occupancy="39.97" speed="4.66" length="5.00" nVehEntered="0"/>
    <interval begin="28.00" end="29.00" id="e1det_WE_1_0" nVehContrib="0" flow="0.00" occupancy="0.00" speed="-1.00" length="-1.00" nVehEntered="0"/>
   <interval begin="28.00" end="29.00" id="e3_gneJ1" meanTravelTime="-1.00" meanOverlapTravelTime="-1.00" meanSpeed="-1.00" meanHaltsPerVehicle="-1.00" meanTimeLoss="-1.00" vehicleSum="0" meanSpeedWithin="7.00" meanHaltsPerVehicleWithin="2.71" meanDurationWithin="10.14" vehicleSumWithin="14" meanIntervalSpeedWithin="5.55" meanIntervalHaltsPerVehicleWithin="0.21" meanIntervalDurationWithin="1.00" meanTimeLossWithin="0.57"/>
    <interval begin="29.00" end="30.00" id="e1det_EW_1_0" nVehContrib="0" flow="0.00" occupancy="0.00" speed="-1.00" length="-1.00" nVehEntered="0"/>
    <interval begin="29.00" end="30.00" id="e1det_NS_1_0" nVehContrib="0" flow="0.00" occupancy="0.00" speed="-1.00" length="-1.00" nVehEntered="0"/>
    <interval begin="29.00" end="30.00" id="e1det_WE_1_0" nVehContrib="0" flow="0.00" occupancy="0.00" speed="-1.00" length="-1.00" nVehEntered="0"/>
   <interval begin="29.00" end="30.00" id="e3_gneJ1" meanTravelTime="-1.00" meanOverlapTravelTime="-1.00" meanSpeed="-1.00" meanHaltsPerVehicle="-1.00" meanTimeLoss="-1.00" vehicleSum="0" meanSpeedWithin="7.48" meanHaltsPerVehicleWithin="2.56" meanDurationWithin="9.92" vehicleSumWithin="16" meanIntervalSpeedWithin="6.25" meanIntervalHaltsPerVehicleWithin="0.19" meanIntervalDurationWithin="1.00" meanTimeLossWithin="0.52"/>
    <interval begin="30.00" end="31.00" id="e1det_EW_1_0" nVehContrib="1" flow="3600.00" occupancy="58.83" speed="8.50" length="5.00" nVehEntered="1"/>
    <interval begin="30.00" end="31.00" id="e1det_NS_1_0" nVehContrib="0" flow="0.00" occupancy="37.31" speed="-1.00" length="-1.00" nVehEntered="1"/>
    <interval begin="30.00" end="31.00" id="e1det_WE_1_0" nVehContrib="0" flow="0.00" occupancy="0.00" speed="-1.00" length="-1.00" nVehEntered="0"/>
   <interval begin="30.00" end="31.00" id="e3_gneJ1" meanTravelTime="16.91" meanOverlapTravelTime="17.35" meanSpeed="7.51" meanHaltsPerVehicle="4.00" meanTimeLoss="7.24" vehicleSum="2" meanSpeedWithin="6.87" meanHaltsPerVehicleWithin="2.47" meanDurationWithin="9.21" vehicleSumWithin="15" meanIntervalSpeedWithin="5.22" meanIntervalHaltsPerVehicleWithin="0.27" meanIntervalDurationWithin="1.00" meanTimeLossWithin="0.56"/>
    <interval begin="31.00" end="32.00" id="e1det_EW_1_0" nVehContrib="0" flow="0.00" occupancy="0.00" speed="-1.00" length="-1.00" nVehEntered="0"/>
    <interval begin="31.00" end="32.00" id="e1det_NS_1_0" nVehContrib="0" flow="0.00" occupancy="100.00" speed="-1.00" length="-1.00" nVehEntered="0"/>
    <interval begin="31.00" end="32.00" id="e1det_WE_1_0" nVehContrib="0" flow="0.00" occupancy="0.00" speed="-1.00" length="-1.00" nVehEntered="0"/>
   <interval begin="31.00" end="32.00" id="e3_gneJ1" meanTravelTime="-1.00" meanOverlapTravelTime="-1.00" meanSpeed="-1.00" meanHaltsPerVehicle="-1.00" meanTimeLoss="-1.00" vehicleSum="0" meanSpeedWithin="6.63" meanHaltsPerVehicleWithin="2.87" meanDurationWithin="10.21" vehicleSumWithin="15" meanIntervalSpeedWithin="4.94" meanIntervalHaltsPerVehicleWithin="0.40" meanIntervalDurationWithin="1.00" meanTimeLossWithin="0.62"/>
    <interval begin="32.00" end="33.00" id="e1det_EW_1_0" nVehContrib="0" flow="0.00" occupancy="0.00" speed="-1.00" length="-1.00" nVehEntered="0"/>
    <interval begin="32.00" end="33.00" id="e1det_NS_1_0" nVehContrib="0" flow="0.00" occupancy="100.00" speed="-1.00" length="-1.00" nVehEntered="0"/>
    <interval begin="32.00" end="33.00" id="e1det_WE_1_0" nVehContrib="0" flow="0.00" occupancy="0.00" speed="-1.00" length="-1.00" nVehEntered="0"/>
   <interval begin="32.00" end="33.00" id="e3_gneJ1" meanTravelTime="10.55" meanOverlapTravelTime="10.90" meanSpeed="10.24" meanHaltsPerVehicle="0.00" meanTimeLoss="2.96" vehicleSum="1" meanSpeedWithin="6.83" meanHaltsPerVehicleWithin="3.13" meanDurationWithin="9.88" vehicleSumWithin="16" meanIntervalSpeedWithin="5.01" meanIntervalHaltsPerVehicleWithin="0.44" meanIntervalDurationWithin="1.00" meanTimeLossWithin="0.61"/>