<?xml version="1.0" encoding="UTF-8"?>

<!-- generated on 05/13/19 13:13:35 by Eclipse SUMO Version 1.0.1
<configuration xmlns:xsi="http://www.w3.org/2001/XMLSchema-instance" xsi:noNamespaceSchemaLocation="http://sumo.dlr.de/xsd/sumoConfiguration.xsd">

    <input>
        <net-file value="c:\users\isaia\onedrive\documents\github\gym-sumo-envs\gym_traffic\envs\config\Y-Intersection\yIntersection.net.xml"/>
        <route-files value="c:\users\isaia\onedrive\documents\github\gym-sumo-envs\gym_traffic\envs\config\Y-Intersection\yIntersection.rou.xml"/>
        <additional-files value="c:\users\isaia\onedrive\documents\github\gym-sumo-envs\gym_traffic\envs\config\Y-Intersection\yIntersection.add.xml"/>
    </input>

    <report>
        <no-warnings value="true"/>
        <no-step-log value="true"/>
    </report>

    <traci_server>
        <remote-port value="62332"/>
    </traci_server>

</configuration>
-->

<detector xmlns:xsi="http://www.w3.org/2001/XMLSchema-instance" xsi:noNamespaceSchemaLocation="http://sumo.dlr.de/xsd/det_e1_file.xsd">
    <interval begin="0.00" end="1.00" id="e1det_EW_1_0" nVehContrib="0" flow="0.00" occupancy="0.00" speed="-1.00" length="-1.00" nVehEntered="0"/>
    <interval begin="0.00" end="1.00" id="e1det_NS_1_0" nVehContrib="0" flow="0.00" occupancy="0.00" speed="-1.00" length="-1.00" nVehEntered="0"/>
    <interval begin="0.00" end="1.00" id="e1det_WE_1_0" nVehContrib="0" flow="0.00" occupancy="0.00" speed="-1.00" length="-1.00" nVehEntered="0"/>
   <interval begin="0.00" end="1.00" id="e3_gneJ1" meanTravelTime="-1.00" meanOverlapTravelTime="-1.00" meanSpeed="-1.00" meanHaltsPerVehicle="-1.00" meanTimeLoss="-1.00" vehicleSum="0" meanSpeedWithin="-1.00" meanHaltsPerVehicleWithin="-1.00" meanDurationWithin="-1.00" vehicleSumWithin="0" meanIntervalSpeedWithin="-1.00" meanIntervalHaltsPerVehicleWithin="-1.00" meanIntervalDurationWithin="-1.00" meanTimeLossWithin="-1.00"/>
    <interval begin="1.00" end="2.00" id="e1det_EW_1_0" nVehContrib="0" flow="0.00" occupancy="0.00" speed="-1.00" length="-1.00" nVehEntered="0"/>
    <interval begin="1.00" end="2.00" id="e1det_NS_1_0" nVehContrib="0" flow="0.00" occupancy="0.00" speed="-1.00" length="-1.00" nVehEntered="0"/>
    <interval begin="1.00" end="2.00" id="e1det_WE_1_0" nVehContrib="0" flow="0.00" occupancy="0.00" speed="-1.00" length="-1.00" nVehEntered="0"/>
   <interval begin="1.00" end="2.00" id="e3_gneJ1" meanTravelTime="-1.00" meanOverlapTravelTime="-1.00" meanSpeed="-1.00" meanHaltsPerVehicle="-1.00" meanTimeLoss="-1.00" vehicleSum="0" meanSpeedWithin="-1.00" meanHaltsPerVehicleWithin="-1.00" meanDurationWithin="-1.00" vehicleSumWithin="0" meanIntervalSpeedWithin="-1.00" meanIntervalHaltsPerVehicleWithin="-1.00" meanIntervalDurationWithin="-1.00" meanTimeLossWithin="-1.00"/>
    <interval begin="2.00" end="3.00" id="e1det_EW_1_0" nVehContrib="0" flow="0.00" occupancy="0.00" speed="-1.00" length="-1.00" nVehEntered="0"/>
    <interval begin="2.00" end="3.00" id="e1det_NS_1_0" nVehContrib="0" flow="0.00" occupancy="0.00" speed="-1.00" length="-1.00" nVehEntered="0"/>
    <interval begin="2.00" end="3.00" id="e1det_WE_1_0" nVehContrib="0" flow="0.00" occupancy="0.00" speed="-1.00" length="-1.00" nVehEntered="0"/>
   <interval begin="2.00" end="3.00" id="e3_gneJ1" meanTravelTime="-1.00" meanOverlapTravelTime="-1.00" meanSpeed="-1.00" meanHaltsPerVehicle="-1.00" meanTimeLoss="-1.00" vehicleSum="0" meanSpeedWithin="-1.00" meanHaltsPerVehicleWithin="-1.00" meanDurationWithin="-1.00" vehicleSumWithin="0" meanIntervalSpeedWithin="-1.00" meanIntervalHaltsPerVehicleWithin="-1.00" meanIntervalDurationWithin="-1.00" meanTimeLossWithin="-1.00"/>
    <interval begin="3.00" end="4.00" id="e1det_EW_1_0" nVehContrib="0" flow="0.00" occupancy="0.00" speed="-1.00" length="-1.00" nVehEntered="0"/>
    <interval begin="3.00" end="4.00" id="e1det_NS_1_0" nVehContrib="0" flow="0.00" occupancy="0.00" speed="-1.00" length="-1.00" nVehEntered="0"/>
    <interval begin="3.00" end="4.00" id="e1det_WE_1_0" nVehContrib="0" flow="0.00" occupancy="0.00" speed="-1.00" length="-1.00" nVehEntered="0"/>
   <interval begin="3.00" end="4.00" id="e3_gneJ1" meanTravelTime="-1.00" meanOverlapTravelTime="-1.00" meanSpeed="-1.00" meanHaltsPerVehicle="-1.00" meanTimeLoss="-1.00" vehicleSum="0" meanSpeedWithin="-1.00" meanHaltsPerVehicleWithin="-1.00" meanDurationWithin="-1.00" vehicleSumWithin="0" meanIntervalSpeedWithin="-1.00" meanIntervalHaltsPerVehicleWithin="-1.00" meanIntervalDurationWithin="-1.00" meanTimeLossWithin="-1.00"/>
    <interval begin="4.00" end="5.00" id="e1det_EW_1_0" nVehContrib="0" flow="0.00" occupancy="0.00" speed="-1.00" length="-1.00" nVehEntered="0"/>
    <interval begin="4.00" end="5.00" id="e1det_NS_1_0" nVehContrib="0" flow="0.00" occupancy="0.00" speed="-1.00" length="-1.00" nVehEntered="0"/>
    <interval begin="4.00" end="5.00" id="e1det_WE_1_0" nVehContrib="0" flow="0.00" occupancy="0.00" speed="-1.00" length="-1.00" nVehEntered="0"/>
   <interval begin="4.00" end="5.00" id="e3_gneJ1" meanTravelTime="-1.00" meanOverlapTravelTime="-1.00" meanSpeed="-1.00" meanHaltsPerVehicle="-1.00" meanTimeLoss="-1.00" vehicleSum="0" meanSpeedWithin="-1.00" meanHaltsPerVehicleWithin="-1.00" meanDurationWithin="-1.00" vehicleSumWithin="0" meanIntervalSpeedWithin="-1.00" meanIntervalHaltsPerVehicleWithin="-1.00" meanIntervalDurationWithin="-1.00" meanTimeLossWithin="-1.00"/>
    <interval begin="5.00" end="6.00" id="e1det_EW_1_0" nVehContrib="0" flow="0.00" occupancy="0.00" speed="-1.00" length="-1.00" nVehEntered="0"/>
    <interval begin="5.00" end="6.00" id="e1det_NS_1_0" nVehContrib="0" flow="0.00" occupancy="0.00" speed="-1.00" length="-1.00" nVehEntered="0"/>
    <interval begin="5.00" end="6.00" id="e1det_WE_1_0" nVehContrib="0" flow="0.00" occupancy="0.00" speed="-1.00" length="-1.00" nVehEntered="0"/>
   <interval begin="5.00" end="6.00" id="e3_gneJ1" meanTravelTime="-1.00" meanOverlapTravelTime="-1.00" meanSpeed="-1.00" meanHaltsPerVehicle="-1.00" meanTimeLoss="-1.00" vehicleSum="0" meanSpeedWithin="-1.00" meanHaltsPerVehicleWithin="-1.00" meanDurationWithin="-1.00" vehicleSumWithin="0" meanIntervalSpeedWithin="-1.00" meanIntervalHaltsPerVehicleWithin="-1.00" meanIntervalDurationWithin="-1.00" meanTimeLossWithin="-1.00"/>
    <interval begin="6.00" end="7.00" id="e1det_EW_1_0" nVehContrib="0" flow="0.00" occupancy="0.00" speed="-1.00" length="-1.00" nVehEntered="0"/>
    <interval begin="6.00" end="7.00" id="e1det_NS_1_0" nVehContrib="0" flow="0.00" occupancy="0.00" speed="-1.00" length="-1.00" nVehEntered="0"/>
    <interval begin="6.00" end="7.00" id="e1det_WE_1_0" nVehContrib="0" flow="0.00" occupancy="0.00" speed="-1.00" length="-1.00" nVehEntered="0"/>
   <interval begin="6.00" end="7.00" id="e3_gneJ1" meanTravelTime="-1.00" meanOverlapTravelTime="-1.00" meanSpeed="-1.00" meanHaltsPerVehicle="-1.00" meanTimeLoss="-1.00" vehicleSum="0" meanSpeedWithin="-1.00" meanHaltsPerVehicleWithin="-1.00" meanDurationWithin="-1.00" vehicleSumWithin="0" meanIntervalSpeedWithin="-1.00" meanIntervalHaltsPerVehicleWithin="-1.00" meanIntervalDurationWithin="-1.00" meanTimeLossWithin="-1.00"/>
    <interval begin="7.00" end="8.00" id="e1det_EW_1_0" nVehContrib="0" flow="0.00" occupancy="0.00" speed="-1.00" length="-1.00" nVehEntered="0"/>
    <interval begin="7.00" end="8.00" id="e1det_NS_1_0" nVehContrib="0" flow="0.00" occupancy="0.00" speed="-1.00" length="-1.00" nVehEntered="0"/>
    <interval begin="7.00" end="8.00" id="e1det_WE_1_0" nVehContrib="0" flow="0.00" occupancy="0.00" speed="-1.00" length="-1.00" nVehEntered="0"/>
   <interval begin="7.00" end="8.00" id="e3_gneJ1" meanTravelTime="-1.00" meanOverlapTravelTime="-1.00" meanSpeed="-1.00" meanHaltsPerVehicle="-1.00" meanTimeLoss="-1.00" vehicleSum="0" meanSpeedWithin="-1.00" meanHaltsPerVehicleWithin="-1.00" meanDurationWithin="-1.00" vehicleSumWithin="0" meanIntervalSpeedWithin="-1.00" meanIntervalHaltsPerVehicleWithin="-1.00" meanIntervalDurationWithin="-1.00" meanTimeLossWithin="-1.00"/>
    <interval begin="8.00" end="9.00" id="e1det_EW_1_0" nVehContrib="0" flow="0.00" occupancy="0.00" speed="-1.00" length="-1.00" nVehEntered="0"/>
    <interval begin="8.00" end="9.00" id="e1det_NS_1_0" nVehContrib="0" flow="0.00" occupancy="0.00" speed="-1.00" length="-1.00" nVehEntered="0"/>
    <interval begin="8.00" end="9.00" id="e1det_WE_1_0" nVehContrib="0" flow="0.00" occupancy="0.00" speed="-1.00" length="-1.00" nVehEntered="0"/>
   <interval begin="8.00" end="9.00" id="e3_gneJ1" meanTravelTime="-1.00" meanOverlapTravelTime="-1.00" meanSpeed="-1.00" meanHaltsPerVehicle="-1.00" meanTimeLoss="-1.00" vehicleSum="0" meanSpeedWithin="13.45" meanHaltsPerVehicleWithin="0.00" meanDurationWithin="1.69" vehicleSumWithin="3" meanIntervalSpeedWithin="13.45" meanIntervalHaltsPerVehicleWithin="0.00" meanIntervalDurationWithin="1.00" meanTimeLossWithin="0.00"/>
    <interval begin="9.00" end="10.00" id="e1det_EW_1_0" nVehContrib="0" flow="0.00" occupancy="0.00" speed="-1.00" length="-1.00" nVehEntered="0"/>
    <interval begin="9.00" end="10.00" id="e1det_NS_1_0" nVehContrib="0" flow="0.00" occupancy="0.00" speed="-1.00" length="-1.00" nVehEntered="0"/>
    <interval begin="9.00" end="10.00" id="e1det_WE_1_0" nVehContrib="0" flow="0.00" occupancy="0.00" speed="-1.00" length="-1.00" nVehEntered="0"/>
   <interval begin="9.00" end="10.00" id="e3_gneJ1" meanTravelTime="-1.00" meanOverlapTravelTime="-1.00" meanSpeed="-1.00" meanHaltsPerVehicle="-1.00" meanTimeLoss="-1.00" vehicleSum="0" meanSpeedWithin="13.55" meanHaltsPerVehicleWithin="0.00" meanDurationWithin="2.69" vehicleSumWithin="3" meanIntervalSpeedWithin="13.72" meanIntervalHaltsPerVehicleWithin="0.00" meanIntervalDurationWithin="1.00" meanTimeLossWithin="0.04"/>
    <interval begin="10.00" end="11.00" id="e1det_EW_1_0" nVehContrib="0" flow="0.00" occupancy="0.00" speed="-1.00" length="-1.00" nVehEntered="0"/>
    <interval begin="10.00" end="11.00" id="e1det_NS_1_0" nVehContrib="0" flow="0.00" occupancy="0.00" speed="-1.00" length="-1.00" nVehEntered="0"/>
    <interval begin="10.00" end="11.00" id="e1det_WE_1_0" nVehContrib="0" flow="0.00" occupancy="0.00" speed="-1.00" length="-1.00" nVehEntered="0"/>
   <interval begin="10.00" end="11.00" id="e3_gneJ1" meanTravelTime="-1.00" meanOverlapTravelTime="-1.00" meanSpeed="-1.00" meanHaltsPerVehicle="-1.00" meanTimeLoss="-1.00" vehicleSum="0" meanSpeedWithin="13.19" meanHaltsPerVehicleWithin="0.00" meanDurationWithin="3.69" vehicleSumWithin="3" meanIntervalSpeedWithin="12.20" meanIntervalHaltsPerVehicleWithin="0.00" meanIntervalDurationWithin="1.00" meanTimeLossWithin="0.14"/>
    <interval begin="11.00" end="12.00" id="e1det_EW_1_0" nVehContrib="0" flow="0.00" occupancy="15.01" speed="-1.00" length="-1.00" nVehEntered="1"/>
    <interval begin="11.00" end="12.00" id="e1det_NS_1_0" nVehContrib="0" flow="0.00" occupancy="64.57" speed="-1.00" length="-1.00" nVehEntered="1"/>
    <interval begin="11.00" end="12.00" id="e1det_WE_1_0" nVehContrib="0" flow="0.00" occupancy="28.47" speed="-1.00" length="-1.00" nVehEntered="1"/>
   <interval begin="11.00" end="12.00" id="e3_gneJ1" meanTravelTime="-1.00" meanOverlapTravelTime="-1.00" meanSpeed="-1.00" meanHaltsPerVehicle="-1.00" meanTimeLoss="-1.00" vehicleSum="0" meanSpeedWithin="13.11" meanHaltsPerVehicleWithin="0.00" meanDurationWithin="3.16" vehicleSumWithin="6" meanIntervalSpeedWithin="11.80" meanIntervalHaltsPerVehicleWithin="0.00" meanIntervalDurationWithin="1.00" meanTimeLossWithin="0.15"/>
    <interval begin="12.00" end="13.00" id="e1det_EW_1_0" nVehContrib="1" flow="3600.00" occupancy="47.11" speed="8.05" length="5.00" nVehEntered="0"/>
    <interval begin="12.00" end="13.00" id="e1det_NS_1_0" nVehContrib="1" flow="3600.00" occupancy="4.37" speed="7.25" length="5.00" nVehEntered="0"/>
    <interval begin="12.00" end="13.00" id="e1det_WE_1_0" nVehContrib="1" flow="3600.00" occupancy="35.69" speed="7.79" length="5.00" nVehEntered="0"/>
   <interval begin="12.00" end="13.00" id="e3_gneJ1" meanTravelTime="-1.00" meanOverlapTravelTime="-1.00" meanSpeed="-1.00" meanHaltsPerVehicle="-1.00" meanTimeLoss="-1.00" vehicleSum="0" meanSpeedWithin="12.54" meanHaltsPerVehicleWithin="0.00" meanDurationWithin="4.16" vehicleSumWithin="6" meanIntervalSpeedWithin="10.08" meanIntervalHaltsPerVehicleWithin="0.00" meanIntervalDurationWithin="1.00" meanTimeLossWithin="0.23"/>
    <interval begin="13.00" end="14.00" id="e1det_EW_1_0" nVehContrib="0" flow="0.00" occupancy="0.00" speed="-1.00" length="-1.00" nVehEntered="0"/>
    <interval begin="13.00" end="14.00" id="e1det_NS_1_0" nVehContrib="0" flow="0.00" occupancy="0.00" speed="-1.00" length="-1.00" nVehEntered="0"/>
    <interval begin="13.00" end="14.00" id="e1det_WE_1_0" nVehContrib="0" flow="0.00" occupancy="0.00" speed="-1.00" length="-1.00" nVehEntered="0"/>
   <interval begin="13.00" end="14.00" id="e3_gneJ1" meanTravelTime="-1.00" meanOverlapTravelTime="-1.00" meanSpeed="-1.00" meanHaltsPerVehicle="-1.00" meanTimeLoss="-1.00" vehicleSum="0" meanSpeedWithin="11.86" meanHaltsPerVehicleWithin="0.17" meanDurationWithin="5.16" vehicleSumWithin="6" meanIntervalSpeedWithin="8.64" meanIntervalHaltsPerVehicleWithin="0.17" meanIntervalDurationWithin="1.00" meanTimeLossWithin="0.32"/>
    <interval begin="14.00" end="15.00" id="e1det_EW_1_0" nVehContrib="0" flow="0.00" occupancy="2.91" speed="-1.00" length="-1.00" nVehEntered="1"/>
    <interval begin="14.00" end="15.00" id="e1det_NS_1_0" nVehContrib="1" flow="3600.00" occupancy="46.46" speed="10.76" length="5.00" nVehEntered="1"/>
    <interval begin="14.00" end="15.00" id="e1det_WE_1_0" nVehContrib="0" flow="0.00" occupancy="0.00" speed="-1.00" length="-1.00" nVehEntered="0"/>
   <interval begin="14.00" end="15.00" id="e3_gneJ1" meanTravelTime="-1.00" meanOverlapTravelTime="-1.00" meanSpeed="-1.00" meanHaltsPerVehicle="-1.00" meanTimeLoss="-1.00" vehicleSum="0" meanSpeedWithin="11.47" meanHaltsPerVehicleWithin="0.22" meanDurationWithin="4.66" vehicleSumWithin="9" meanIntervalSpeedWithin="9.17" meanIntervalHaltsPerVehicleWithin="0.11" meanIntervalDurationWithin="1.00" meanTimeLossWithin="0.31"/>
    <interval begin="15.00" end="16.00" id="e1det_EW_1_0" nVehContrib="1" flow="3600.00" occupancy="70.86" speed="6.78" length="5.00" nVehEntered="0"/>
    <interval begin="15.00" end="16.00" id="e1det_NS_1_0" nVehContrib="0" flow="0.00" occupancy="0.00" speed="-1.00" length="-1.00" nVehEntered="0"/>
    <interval begin="15.00" end="16.00" id="e1det_WE_1_0" nVehContrib="0" flow="0.00" occupancy="11.60" speed="-1.00" length="-1.00" nVehEntered="1"/>
   <interval begin="15.00" end="16.00" id="e3_gneJ1" meanTravelTime="-1.00" meanOverlapTravelTime="-1.00" meanSpeed="-1.00" meanHaltsPerVehicle="-1.00" meanTimeLoss="-1.00" vehicleSum="0" meanSpeedWithin="10.98" meanHaltsPerVehicleWithin="0.33" meanDurationWithin="5.66" vehicleSumWithin="9" meanIntervalSpeedWithin="8.22" meanIntervalHaltsPerVehicleWithin="0.11" meanIntervalDurationWithin="1.00" meanTimeLossWithin="0.35"/>
    <interval begin="16.00" end="17.00" id="e1det_EW_1_0" nVehContrib="0" flow="0.00" occupancy="0.00" speed="-1.00" length="-1.00" nVehEntered="0"/>
    <interval begin="16.00" end="17.00" id="e1det_NS_1_0" nVehContrib="0" flow="0.00" occupancy="0.00" speed="-1.00" length="-1.00" nVehEntered="0"/>
    <interval begin="16.00" end="17.00" id="e1det_WE_1_0" nVehContrib="0" flow="0.00" occupancy="100.00" speed="-1.00" length="-1.00" nVehEntered="0"/>
   <interval begin="16.00" end="17.00" id="e3_gneJ1" meanTravelTime="-1.00" meanOverlapTravelTime="-1.00" meanSpeed="-1.00" meanHaltsPerVehicle="-1.00" meanTimeLoss="-1.00" vehicleSum="0" meanSpeedWithin="10.67" meanHaltsPerVehicleWithin="0.40" meanDurationWithin="6.11" vehicleSumWithin="10" meanIntervalSpeedWithin="8.43" meanIntervalHaltsPerVehicleWithin="0.10" meanIntervalDurationWithin="1.00" meanTimeLossWithin="0.33"/>
    <interval begin="17.00" end="18.00" id="e1det_EW_1_0" nVehContrib="0" flow="0.00" occupancy="0.00" speed="-1.00" length="-1.00" nVehEntered="0"/>
    <interval begin="17.00" end="18.00" id="e1det_NS_1_0" nVehContrib="1" flow="3600.00" occupancy="76.34" speed="6.55" length="5.00" nVehEntered="1"/>
    <interval begin="17.00" end="18.00" id="e1det_WE_1_0" nVehContrib="0" flow="0.00" occupancy="100.00" speed="-1.00" length="-1.00" nVehEntered="0"/>
   <interval begin="17.00" end="18.00" id="e3_gneJ1" meanTravelTime="-1.00" meanOverlapTravelTime="-1.00" meanSpeed="-1.00" meanHaltsPerVehicle="-1.00" meanTimeLoss="-1.00" vehicleSum="0" meanSpeedWithin="10.42" meanHaltsPerVehicleWithin="0.33" meanDurationWithin="6.19" vehicleSumWithin="12" meanIntervalSpeedWithin="8.80" meanIntervalHaltsPerVehicleWithin="0.00" meanIntervalDurationWithin="1.00" meanTimeLossWithin="0.32"/>
    <interval begin="18.00" end="19.00" id="e1det_EW_1_0" nVehContrib="0" flow="0.00" occupancy="42.58" speed="-1.00" length="-1.00" nVehEntered="1"/>
    <interval begin="18.00" end="19.00" id="e1det_NS_1_0" nVehContrib="0" flow="0.00" occupancy="0.00" speed="-1.00" length="-1.00" nVehEntered="0"/>
    <interval begin="18.00" end="19.00" id="e1det_WE_1_0" nVehContrib="1" flow="3600.00" occupancy="57.17" speed="1.86" length="5.00" nVehEntered="0"/>
   <interval begin="18.00" end="19.00" id="e3_gneJ1" meanTravelTime="9.78" meanOverlapTravelTime="10.11" meanSpeed="11.31" meanHaltsPerVehicle="0.00" meanTimeLoss="1.92" vehicleSum="1" meanSpeedWithin="9.95" meanHaltsPerVehicleWithin="0.36" meanDurationWithin="6.77" vehicleSumWithin="11" meanIntervalSpeedWithin="8.12" meanIntervalHaltsPerVehicleWithin="0.00" meanIntervalDurationWithin="1.00" meanTimeLossWithin="0.40"/>
    <interval begin="19.00" end="20.00" id="e1det_EW_1_0" nVehContrib="1" flow="3600.00" occupancy="27.47" speed="7.14" length="5.00" nVehEntered="0"/>
    <interval begin="19.00" end="20.00" id="e1det_NS_1_0" nVehContrib="0" flow="0.00" occupancy="0.00" speed="-1.00" length="-1.00" nVehEntered="0"/>
    <interval begin="19.00" end="20.00" id="e1det_WE_1_0" nVehContrib="0" flow="0.00" occupancy="0.00" speed="-1.00" length="-1.00" nVehEntered="0"/>
   <interval begin="19.00" end="20.00" id="e3_gneJ1" meanTravelTime="10.26" meanOverlapTravelTime="10.61" meanSpeed="10.64" meanHaltsPerVehicle="0.00" meanTimeLoss="2.49" vehicleSum="1" meanSpeedWithin="9.43" meanHaltsPerVehicleWithin="0.40" meanDurationWithin="7.30" vehicleSumWithin="10" meanIntervalSpeedWithin="7.47" meanIntervalHaltsPerVehicleWithin="0.00" meanIntervalDurationWithin="1.00" meanTimeLossWithin="0.42"/>
    <interval begin="20.00" end="21.00" id="e1det_EW_1_0" nVehContrib="0" flow="0.00" occupancy="0.00" speed="-1.00" length="-1.00" nVehEntered="0"/>
    <interval begin="20.00" end="21.00" id="e1det_NS_1_0" nVehContrib="0" flow="0.00" occupancy="41.39" speed="-1.00" length="-1.00" nVehEntered="1"/>
    <interval begin="20.00" end="21.00" id="e1det_WE_1_0" nVehContrib="0" flow="0.00" occupancy="22.30" speed="-1.00" length="-1.00" nVehEntered="1"/>
   <interval begin="20.00" end="21.00" id="e3_gneJ1" meanTravelTime="-1.00" meanOverlapTravelTime="-1.00" meanSpeed="-1.00" meanHaltsPerVehicle="-1.00" meanTimeLoss="-1.00" vehicleSum="0" meanSpeedWithin="9.63" meanHaltsPerVehicleWithin="0.33" meanDurationWithin="7.21" vehicleSumWithin="12" meanIntervalSpeedWithin="8.24" meanIntervalHaltsPerVehicleWithin="0.00" meanIntervalDurationWithin="1.00" meanTimeLossWithin="0.31"/>
    <interval begin="21.00" end="22.00" id="e1det_EW_1_0" nVehContrib="0" flow="0.00" occupancy="45.28" speed="-1.00" length="-1.00" nVehEntered="1"/>
    <interval begin="21.00" end="22.00" id="e1det_NS_1_0" nVehContrib="1" flow="3600.00" occupancy="54.08" speed="5.24" length="5.00" nVehEntered="0"/>
    <interval begin="21.00" end="22.00" id="e1det_WE_1_0" nVehContrib="0" flow="0.00" occupancy="100.00" speed="-1.00" length="-1.00" nVehEntered="0"/>
   <interval begin="21.00" end="22.00" id="e3_gneJ1" meanTravelTime="10.21" meanOverlapTravelTime="10.58" meanSpeed="10.69" meanHaltsPerVehicle="0.00" meanTimeLoss="2.21" vehicleSum="1" meanSpeedWithin="9.44" meanHaltsPerVehicleWithin="0.42" meanDurationWithin="7.37" vehicleSumWithin="12" meanIntervalSpeedWithin="7.95" meanIntervalHaltsPerVehicleWithin="0.08" meanIntervalDurationWithin="1.00" meanTimeLossWithin="0.40"/>
    <interval begin="22.00" end="23.00" id="e1det_EW_1_0" nVehContrib="1" flow="3600.00" occupancy="30.81" speed="6.57" length="5.00" nVehEntered="0"/>
    <interval begin="22.00" end="23.00" id="e1det_NS_1_0" nVehContrib="0" flow="0.00" occupancy="0.00" speed="-1.00" length="-1.00" nVehEntered="0"/>
    <interval begin="22.00" end="23.00" id="e1det_WE_1_0" nVehContrib="1" flow="3600.00" occupancy="54.39" speed="2.83" length="5.00" nVehEntered="0"/>
   <interval begin="22.00" end="23.00" id="e3_gneJ1" meanTravelTime="10.51" meanOverlapTravelTime="10.87" meanSpeed="10.40" meanHaltsPerVehicle="0.00" meanTimeLoss="2.71" vehicleSum="1" meanSpeedWithin="8.88" meanHaltsPerVehicleWithin="0.45" meanDurationWithin="8.00" vehicleSumWithin="11" meanIntervalSpeedWithin="6.61" meanIntervalHaltsPerVehicleWithin="0.00" meanIntervalDurationWithin="1.00" meanTimeLossWithin="0.50"/>
    <interval begin="23.00" end="24.00" id="e1det_EW_1_0" nVehContrib="0" flow="0.00" occupancy="0.00" speed="-1.00" length="-1.00" nVehEntered="0"/>
    <interval begin="23.00" end="24.00" id="e1det_NS_1_0" nVehContrib="0" flow="0.00" occupancy="0.00" speed="-1.00" length="-1.00" nVehEntered="0"/>
    <interval begin="23.00" end="24.00" id="e1det_WE_1_0" nVehContrib="0" flow="0.00" occupancy="0.00" speed="-1.00" length="-1.00" nVehEntered="0"/>
   <interval begin="23.00" end="24.00" id="e3_gneJ1" meanTravelTime="15.25" meanOverlapTravelTime="15.63" meanSpeed="7.62" meanHaltsPerVehicle="3.00" meanTimeLoss="6.11" vehicleSum="1" meanSpeedWithin="9.38" meanHaltsPerVehicleWithin="0.23" meanDurationWithin="6.68" vehicleSumWithin="13" meanIntervalSpeedWithin="7.12" meanIntervalHaltsPerVehicleWithin="0.08" meanIntervalDurationWithin="1.00" meanTimeLossWithin="0.43"/>
    <interval begin="24.00" end="25.00" id="e1det_EW_1_0" nVehContrib="0" flow="0.00" occupancy="0.00" speed="-1.00" length="-1.00" nVehEntered="0"/>
    <interval begin="24.00" end="25.00" id="e1det_NS_1_0" nVehContrib="0" flow="0.00" occupancy="82.55" speed="-1.00" length="-1.00" nVehEntered="1"/>
    <interval begin="24.00" end="25.00" id="e1det_WE_1_0" nVehContrib="0" flow="0.00" occupancy="0.00" speed="-1.00" length="-1.00" nVehEntered="0"/>
   <interval begin="24.00" end="25.00" id="e3_gneJ1" meanTravelTime="-1.00" meanOverlapTravelTime="-1.00" meanSpeed="-1.00" meanHaltsPerVehicle="-1.00" meanTimeLoss="-1.00" vehicleSum="0" meanSpeedWithin="8.88" meanHaltsPerVehicleWithin="0.31" meanDurationWithin="7.68" vehicleSumWithin="13" meanIntervalSpeedWithin="6.80" meanIntervalHaltsPerVehicleWithin="0.08" meanIntervalDurationWithin="1.00" meanTimeLossWithin="0.48"/>
    <interval begin="25.00" end="26.00" id="e1det_EW_1_0" nVehContrib="0" flow="0.00" occupancy="39.29" speed="-1.00" length="-1.00" nVehEntered="1"/>
    <interval begin="25.00" end="26.00" id="e1det_NS_1_0" nVehContrib="1" flow="3600.00" occupancy="27.05" speed="4.56" length="5.00" nVehEntered="0"/>
    <interval begin="25.00" end="26.00" id="e1det_WE_1_0" nVehContrib="0" flow="0.00" occupancy="78.94" speed="-1.00" length="-1.00" nVehEntered="1"/>
   <interval begin="25.00" end="26.00" id="e3_gneJ1" meanTravelTime="-1.00" meanOverlapTravelTime="-1.00" meanSpeed="-1.00" meanHaltsPerVehicle="-1.00" meanTimeLoss="-1.00" vehicleSum="0" meanSpeedWithin="8.84" meanHaltsPerVehicleWithin="0.40" meanDurationWithin="7.67" vehicleSumWithin="15" meanIntervalSpeedWithin="7.20" meanIntervalHaltsPerVehicleWithin="0.13" meanIntervalDurationWithin="1.00" meanTimeLossWithin="0.44"/>
    <interval begin="26.00" end="27.00" id="e1det_EW_1_0" nVehContrib="0" flow="0.00" occupancy="100.00" speed="-1.00" length="-1.00" nVehEntered="0"/>
    <interval begin="26.00" end="27.00" id="e1det_NS_1_0" nVehContrib="0" flow="0.00" occupancy="0.00" speed="-1.00" length="-1.00" nVehEntered="0"/>
    <interval begin="26.00" end="27.00" id="e1det_WE_1_0" nVehContrib="1" flow="3600.00" occupancy="28.92" speed="4.64" length="5.00" nVehEntered="0"/>
   <interval begin="26.00" end="27.00" id="e3_gneJ1" meanTravelTime="11.70" meanOverlapTravelTime="12.08" meanSpeed="9.48" meanHaltsPerVehicle="0.00" meanTimeLoss="3.32" vehicleSum="2" meanSpeedWithin="8.35" meanHaltsPerVehicleWithin="0.64" meanDurationWithin="7.45" vehicleSumWithin="14" meanIntervalSpeedWithin="5.98" meanIntervalHaltsPerVehicleWithin="0.21" meanIntervalDurationWithin="1.00" meanTimeLossWithin="0.55"/>
    <interval begin="27.00" end="28.00" id="e1det_EW_1_0" nVehContrib="0" flow="0.00" occupancy="100.00" speed="-1.00" length="-1.00" nVehEntered="0"/>
    <interval begin="27.00" end="28.00" id="e1det_NS_1_0" nVehContrib="0" flow="0.00" occupancy="24.92" speed="-1.00" length="-1.00" nVehEntered="1"/>
    <interval begin="27.00" end="28.00" id="e1det_WE_1_0" nVehContrib="0" flow="0.00" occupancy="0.00" speed="-1.00" length="-1.00" nVehEntered="0"/>
   <interval begin="27.00" end="28.00" id="e3_gneJ1" meanTravelTime="-1.00" meanOverlapTravelTime="-1.00" meanSpeed="-1.00" meanHaltsPerVehicle="-1.00" meanTimeLoss="-1.00" vehicleSum="0" meanSpeedWithin="7.84" meanHaltsPerVehicleWithin="0.79" meanDurationWithin="8.45" vehicleSumWithin="14" meanIntervalSpeedWithin="5.81" meanIntervalHaltsPerVehicleWithin="0.14" meanIntervalDurationWithin="1.00" meanTimeLossWithin="0.54"/>
    <interval begin="28.00" end="29.00" id="e1det_EW_1_0" nVehContrib="0" flow="0.00" occupancy="100.00" speed="-1.00" length="-1.00" nVehEntered="0"/>
    <interval begin="28.00" end="29.00" id="e1det_NS_1_0" nVehContrib="0" flow="0.00" occupancy="100.00" speed="-1.00" length="-1.00" nVehEntered="0"/>
    <interval begin="28.00" end="29.00" id="e1det_WE_1_0" nVehContrib="0" flow="0.00" occupancy="79.59" speed="-1.00" length="-1.00" nVehEntered="1"/>
   <interval begin="28.00" end="29.00" id="e3_gneJ1" meanTravelTime="-1.00" meanOverlapTravelTime="-1.00" meanSpeed="-1.00" meanHaltsPerVehicle="-1.00" meanTimeLoss="-1.00" vehicleSum="0" meanSpeedWithin="7.31" meanHaltsPerVehicleWithin="1.14" meanDurationWithin="9.45" vehicleSumWithin="14" meanIntervalSpeedWithin="5.21" meanIntervalHaltsPerVehicleWithin="0.36" meanIntervalDurationWithin="1.00" meanTimeLossWithin="0.60"/>
    <interval begin="29.00" end="30.00" id="e1det_EW_1_0" nVehContrib="1" flow="3600.00" occupancy="75.52" speed="1.21" length="5.00" nVehEntered="0"/>
    <interval begin="29.00" end="30.00" id="e1det_NS_1_0" nVehContrib="0" flow="0.00" occupancy="100.00" speed="-1.00" length="-1.00" nVehEntered="0"/>
    <interval begin="29.00" end="30.00" id="e1det_WE_1_0" nVehContrib="0" flow="0.00" occupancy="100.00" speed="-1.00" length="-1.00" nVehEntered="0"/>
   <interval begin="29.00" end="30.00" id="e3_gneJ1" meanTravelTime="15.25" meanOverlapTravelTime="15.62" meanSpeed="7.43" meanHaltsPerVehicle="1.00" meanTimeLoss="7.45" vehicleSum="2" meanSpeedWithin="7.51" meanHaltsPerVehicleWithin="1.27" meanDurationWithin="7.86" vehicleSumWithin="15" meanIntervalSpeedWithin="4.83" meanIntervalHaltsPerVehicleWithin="0.33" meanIntervalDurationWithin="1.00" meanTimeLossWithin="0.58"/>
    <interval begin="30.00" end="31.00" id="e1det_EW_1_0" nVehContrib="0" flow="0.00" occupancy="0.00" speed="-1.00" length="-1.00" nVehEntered="0"/>
    <interval begin="30.00" end="31.00" id="e1det_NS_1_0" nVehContrib="0" flow="0.00" occupancy="100.00" speed="-1.00" length="-1.00" nVehEntered="0"/>
    <interval begin="30.00" end="31.00" id="e1det_WE_1_0" nVehContrib="1" flow="3600.00" occupancy="17.58" speed="2.54" length="5.00" nVehEntered="0"/>
   <interval begin="30.00" end="31.00" id="e3_gneJ1" meanTravelTime="-1.00" meanOverlapTravelTime="-1.00" meanSpeed="-1.00" meanHaltsPerVehicle="-1.00" meanTimeLoss="-1.00" vehicleSum="0" meanSpeedWithin="6.87" meanHaltsPerVehicleWithin="1.73" meanDurationWithin="8.86" vehicleSumWithin="15" meanIntervalSpeedWithin="3.72" meanIntervalHaltsPerVehicleWithin="0.47" meanIntervalDurationWithin="1.00" meanTimeLossWithin="0.69"/>
    <interval begin="31.00" end="32.00" id="e1det_EW_1_0" nVehContrib="0" flow="0.00" occupancy="28.64" speed="-1.00" length="-1.00" nVehEntered="1"/>
    <interval begin="31.00" end="32.00" id="e1det_NS_1_0" nVehContrib="0" flow="0.00" occupancy="100.00" speed="-1.00" length="-1.00" nVehEntered="0"/>
    <interval begin="31.00" end="32.00" id="e1det_WE_1_0" nVehContrib="0" flow="0.00" occupancy="0.00" speed="-1.00" length="-1.00" nVehEntered="0"/>
   <interval begin="31.00" end="32.00" id="e3_gneJ1" meanTravelTime="17.01" meanOverlapTravelTime="17.45" meanSpeed="6.60" meanHaltsPerVehicle="0.00" meanTimeLoss="6.81" vehicleSum="1" meanSpeedWithin="6.59" meanHaltsPerVehicleWithin="2.13" meanDurationWithin="8.69" vehicleSumWithin="15" meanIntervalSpeedWithin="3.36" meanIntervalHaltsPerVehicleWithin="0.40" meanIntervalDurationWithin="1.00" meanTimeLossWithin="0.74"/>
    <interval begin="32.00" end="33.00" id="e1det_EW_1_0" nVehContrib="1" flow="3600.00" occupancy="72.65" speed="4.94" length="5.00" nVehEntered="0"/>
    <interval begin="32.00" end="33.00" id="e1det_NS_1_0" nVehContrib="0" flow="0.00" occupancy="100.00" speed="-1.00" length="-1.00" nVehEntered="0"/>
    <interval begin="32.00" end="33.00" id="e1det_WE_1_0" nVehContrib="0" flow="0.00" occupancy="0.00" speed="-1.00" length="-1.00" nVehEntered="0"/>
   <interval begin="32.00" end="33.00" id="e3_gneJ1" meanTravelTime="-1.00" meanOverlapTravelTime="-1.00" meanSpeed="-1.00" meanHaltsPerVehicle="-1.00" meanTimeLoss="-1.00" vehicleSum="0" meanSpeedWithin="6.49" meanHaltsPerVehicleWithin="2.35" meanDurationWithin="8.73" vehicleSumWithin="17" meanIntervalSpeedWithin="3.81" meanIntervalHaltsPerVehicleWithin="0.47" meanIntervalDurationWithin="1.00" meanTimeLossWithin="0.69"/>