<?xml version="1.0" encoding="UTF-8"?>

<!-- generated on 05/13/19 13:00:06 by Eclipse SUMO Version 1.0.1
<configuration xmlns:xsi="http://www.w3.org/2001/XMLSchema-instance" xsi:noNamespaceSchemaLocation="http://sumo.dlr.de/xsd/sumoConfiguration.xsd">

    <input>
        <net-file value="c:\users\isaia\onedrive\documents\github\gym-sumo-envs\gym_traffic\envs\config\Y-Intersection\yIntersection.net.xml"/>
        <route-files value="c:\users\isaia\onedrive\documents\github\gym-sumo-envs\gym_traffic\envs\config\Y-Intersection\yIntersection.rou.xml"/>
        <additional-files value="c:\users\isaia\onedrive\documents\github\gym-sumo-envs\gym_traffic\envs\config\Y-Intersection\yIntersection.add.xml"/>
    </input>

    <report>
        <no-warnings value="true"/>
        <no-step-log value="true"/>
    </report>

    <traci_server>
        <remote-port value="60842"/>
    </traci_server>

</configuration>
-->

<detector xmlns:xsi="http://www.w3.org/2001/XMLSchema-instance" xsi:noNamespaceSchemaLocation="http://sumo.dlr.de/xsd/det_e1_file.xsd">
    <interval begin="0.00" end="1.00" id="e1det_EW_1_0" nVehContrib="0" flow="0.00" occupancy="0.00" speed="-1.00" length="-1.00" nVehEntered="0"/>
    <interval begin="0.00" end="1.00" id="e1det_NS_1_0" nVehContrib="0" flow="0.00" occupancy="0.00" speed="-1.00" length="-1.00" nVehEntered="0"/>
    <interval begin="0.00" end="1.00" id="e1det_WE_1_0" nVehContrib="0" flow="0.00" occupancy="0.00" speed="-1.00" length="-1.00" nVehEntered="0"/>
   <interval begin="0.00" end="1.00" id="e3_gneJ1" meanTravelTime="-1.00" meanOverlapTravelTime="-1.00" meanSpeed="-1.00" meanHaltsPerVehicle="-1.00" meanTimeLoss="-1.00" vehicleSum="0" meanSpeedWithin="-1.00" meanHaltsPerVehicleWithin="-1.00" meanDurationWithin="-1.00" vehicleSumWithin="0" meanIntervalSpeedWithin="-1.00" meanIntervalHaltsPerVehicleWithin="-1.00" meanIntervalDurationWithin="-1.00" meanTimeLossWithin="-1.00"/>
    <interval begin="1.00" end="2.00" id="e1det_EW_1_0" nVehContrib="0" flow="0.00" occupancy="0.00" speed="-1.00" length="-1.00" nVehEntered="0"/>
    <interval begin="1.00" end="2.00" id="e1det_NS_1_0" nVehContrib="0" flow="0.00" occupancy="0.00" speed="-1.00" length="-1.00" nVehEntered="0"/>
    <interval begin="1.00" end="2.00" id="e1det_WE_1_0" nVehContrib="0" flow="0.00" occupancy="0.00" speed="-1.00" length="-1.00" nVehEntered="0"/>
   <interval begin="1.00" end="2.00" id="e3_gneJ1" meanTravelTime="-1.00" meanOverlapTravelTime="-1.00" meanSpeed="-1.00" meanHaltsPerVehicle="-1.00" meanTimeLoss="-1.00" vehicleSum="0" meanSpeedWithin="-1.00" meanHaltsPerVehicleWithin="-1.00" meanDurationWithin="-1.00" vehicleSumWithin="0" meanIntervalSpeedWithin="-1.00" meanIntervalHaltsPerVehicleWithin="-1.00" meanIntervalDurationWithin="-1.00" meanTimeLossWithin="-1.00"/>
    <interval begin="2.00" end="3.00" id="e1det_EW_1_0" nVehContrib="0" flow="0.00" occupancy="0.00" speed="-1.00" length="-1.00" nVehEntered="0"/>
    <interval begin="2.00" end="3.00" id="e1det_NS_1_0" nVehContrib="0" flow="0.00" occupancy="0.00" speed="-1.00" length="-1.00" nVehEntered="0"/>
    <interval begin="2.00" end="3.00" id="e1det_WE_1_0" nVehContrib="0" flow="0.00" occupancy="0.00" speed="-1.00" length="-1.00" nVehEntered="0"/>
   <interval begin="2.00" end="3.00" id="e3_gneJ1" meanTravelTime="-1.00" meanOverlapTravelTime="-1.00" meanSpeed="-1.00" meanHaltsPerVehicle="-1.00" meanTimeLoss="-1.00" vehicleSum="0" meanSpeedWithin="-1.00" meanHaltsPerVehicleWithin="-1.00" meanDurationWithin="-1.00" vehicleSumWithin="0" meanIntervalSpeedWithin="-1.00" meanIntervalHaltsPerVehicleWithin="-1.00" meanIntervalDurationWithin="-1.00" meanTimeLossWithin="-1.00"/>
    <interval begin="3.00" end="4.00" id="e1det_EW_1_0" nVehContrib="0" flow="0.00" occupancy="0.00" speed="-1.00" length="-1.00" nVehEntered="0"/>
    <interval begin="3.00" end="4.00" id="e1det_NS_1_0" nVehContrib="0" flow="0.00" occupancy="0.00" speed="-1.00" length="-1.00" nVehEntered="0"/>
    <interval begin="3.00" end="4.00" id="e1det_WE_1_0" nVehContrib="0" flow="0.00" occupancy="0.00" speed="-1.00" length="-1.00" nVehEntered="0"/>
   <interval begin="3.00" end="4.00" id="e3_gneJ1" meanTravelTime="-1.00" meanOverlapTravelTime="-1.00" meanSpeed="-1.00" meanHaltsPerVehicle="-1.00" meanTimeLoss="-1.00" vehicleSum="0" meanSpeedWithin="-1.00" meanHaltsPerVehicleWithin="-1.00" meanDurationWithin="-1.00" vehicleSumWithin="0" meanIntervalSpeedWithin="-1.00" meanIntervalHaltsPerVehicleWithin="-1.00" meanIntervalDurationWithin="-1.00" meanTimeLossWithin="-1.00"/>
    <interval begin="4.00" end="5.00" id="e1det_EW_1_0" nVehContrib="0" flow="0.00" occupancy="0.00" speed="-1.00" length="-1.00" nVehEntered="0"/>
    <interval begin="4.00" end="5.00" id="e1det_NS_1_0" nVehContrib="0" flow="0.00" occupancy="0.00" speed="-1.00" length="-1.00" nVehEntered="0"/>
    <interval begin="4.00" end="5.00" id="e1det_WE_1_0" nVehContrib="0" flow="0.00" occupancy="0.00" speed="-1.00" length="-1.00" nVehEntered="0"/>
   <interval begin="4.00" end="5.00" id="e3_gneJ1" meanTravelTime="-1.00" meanOverlapTravelTime="-1.00" meanSpeed="-1.00" meanHaltsPerVehicle="-1.00" meanTimeLoss="-1.00" vehicleSum="0" meanSpeedWithin="-1.00" meanHaltsPerVehicleWithin="-1.00" meanDurationWithin="-1.00" vehicleSumWithin="0" meanIntervalSpeedWithin="-1.00" meanIntervalHaltsPerVehicleWithin="-1.00" meanIntervalDurationWithin="-1.00" meanTimeLossWithin="-1.00"/>
    <interval begin="5.00" end="6.00" id="e1det_EW_1_0" nVehContrib="0" flow="0.00" occupancy="0.00" speed="-1.00" length="-1.00" nVehEntered="0"/>
    <interval begin="5.00" end="6.00" id="e1det_NS_1_0" nVehContrib="0" flow="0.00" occupancy="0.00" speed="-1.00" length="-1.00" nVehEntered="0"/>
    <interval begin="5.00" end="6.00" id="e1det_WE_1_0" nVehContrib="0" flow="0.00" occupancy="0.00" speed="-1.00" length="-1.00" nVehEntered="0"/>
   <interval begin="5.00" end="6.00" id="e3_gneJ1" meanTravelTime="-1.00" meanOverlapTravelTime="-1.00" meanSpeed="-1.00" meanHaltsPerVehicle="-1.00" meanTimeLoss="-1.00" vehicleSum="0" meanSpeedWithin="-1.00" meanHaltsPerVehicleWithin="-1.00" meanDurationWithin="-1.00" vehicleSumWithin="0" meanIntervalSpeedWithin="-1.00" meanIntervalHaltsPerVehicleWithin="-1.00" meanIntervalDurationWithin="-1.00" meanTimeLossWithin="-1.00"/>
    <interval begin="6.00" end="7.00" id="e1det_EW_1_0" nVehContrib="0" flow="0.00" occupancy="0.00" speed="-1.00" length="-1.00" nVehEntered="0"/>
    <interval begin="6.00" end="7.00" id="e1det_NS_1_0" nVehContrib="0" flow="0.00" occupancy="0.00" speed="-1.00" length="-1.00" nVehEntered="0"/>
    <interval begin="6.00" end="7.00" id="e1det_WE_1_0" nVehContrib="0" flow="0.00" occupancy="0.00" speed="-1.00" length="-1.00" nVehEntered="0"/>
   <interval begin="6.00" end="7.00" id="e3_gneJ1" meanTravelTime="-1.00" meanOverlapTravelTime="-1.00" meanSpeed="-1.00" meanHaltsPerVehicle="-1.00" meanTimeLoss="-1.00" vehicleSum="0" meanSpeedWithin="-1.00" meanHaltsPerVehicleWithin="-1.00" meanDurationWithin="-1.00" vehicleSumWithin="0" meanIntervalSpeedWithin="-1.00" meanIntervalHaltsPerVehicleWithin="-1.00" meanIntervalDurationWithin="-1.00" meanTimeLossWithin="-1.00"/>
    <interval begin="7.00" end="8.00" id="e1det_EW_1_0" nVehContrib="0" flow="0.00" occupancy="0.00" speed="-1.00" length="-1.00" nVehEntered="0"/>
    <interval begin="7.00" end="8.00" id="e1det_NS_1_0" nVehContrib="0" flow="0.00" occupancy="0.00" speed="-1.00" length="-1.00" nVehEntered="0"/>
    <interval begin="7.00" end="8.00" id="e1det_WE_1_0" nVehContrib="0" flow="0.00" occupancy="0.00" speed="-1.00" length="-1.00" nVehEntered="0"/>
   <interval begin="7.00" end="8.00" id="e3_gneJ1" meanTravelTime="-1.00" meanOverlapTravelTime="-1.00" meanSpeed="-1.00" meanHaltsPerVehicle="-1.00" meanTimeLoss="-1.00" vehicleSum="0" meanSpeedWithin="-1.00" meanHaltsPerVehicleWithin="-1.00" meanDurationWithin="-1.00" vehicleSumWithin="0" meanIntervalSpeedWithin="-1.00" meanIntervalHaltsPerVehicleWithin="-1.00" meanIntervalDurationWithin="-1.00" meanTimeLossWithin="-1.00"/>
    <interval begin="8.00" end="9.00" id="e1det_EW_1_0" nVehContrib="0" flow="0.00" occupancy="0.00" speed="-1.00" length="-1.00" nVehEntered="0"/>
    <interval begin="8.00" end="9.00" id="e1det_NS_1_0" nVehContrib="0" flow="0.00" occupancy="0.00" speed="-1.00" length="-1.00" nVehEntered="0"/>
    <interval begin="8.00" end="9.00" id="e1det_WE_1_0" nVehContrib="0" flow="0.00" occupancy="0.00" speed="-1.00" length="-1.00" nVehEntered="0"/>
   <interval begin="8.00" end="9.00" id="e3_gneJ1" meanTravelTime="-1.00" meanOverlapTravelTime="-1.00" meanSpeed="-1.00" meanHaltsPerVehicle="-1.00" meanTimeLoss="-1.00" vehicleSum="0" meanSpeedWithin="13.45" meanHaltsPerVehicleWithin="0.00" meanDurationWithin="1.69" vehicleSumWithin="3" meanIntervalSpeedWithin="13.45" meanIntervalHaltsPerVehicleWithin="0.00" meanIntervalDurationWithin="1.00" meanTimeLossWithin="0.00"/>
    <interval begin="9.00" end="10.00" id="e1det_EW_1_0" nVehContrib="0" flow="0.00" occupancy="0.00" speed="-1.00" length="-1.00" nVehEntered="0"/>
    <interval begin="9.00" end="10.00" id="e1det_NS_1_0" nVehContrib="0" flow="0.00" occupancy="0.00" speed="-1.00" length="-1.00" nVehEntered="0"/>
    <interval begin="9.00" end="10.00" id="e1det_WE_1_0" nVehContrib="0" flow="0.00" occupancy="0.00" speed="-1.00" length="-1.00" nVehEntered="0"/>
   <interval begin="9.00" end="10.00" id="e3_gneJ1" meanTravelTime="-1.00" meanOverlapTravelTime="-1.00" meanSpeed="-1.00" meanHaltsPerVehicle="-1.00" meanTimeLoss="-1.00" vehicleSum="0" meanSpeedWithin="13.55" meanHaltsPerVehicleWithin="0.00" meanDurationWithin="2.69" vehicleSumWithin="3" meanIntervalSpeedWithin="13.72" meanIntervalHaltsPerVehicleWithin="0.00" meanIntervalDurationWithin="1.00" meanTimeLossWithin="0.04"/>
    <interval begin="10.00" end="11.00" id="e1det_EW_1_0" nVehContrib="0" flow="0.00" occupancy="0.00" speed="-1.00" length="-1.00" nVehEntered="0"/>
    <interval begin="10.00" end="11.00" id="e1det_NS_1_0" nVehContrib="0" flow="0.00" occupancy="0.00" speed="-1.00" length="-1.00" nVehEntered="0"/>
    <interval begin="10.00" end="11.00" id="e1det_WE_1_0" nVehContrib="0" flow="0.00" occupancy="0.00" speed="-1.00" length="-1.00" nVehEntered="0"/>
   <interval begin="10.00" end="11.00" id="e3_gneJ1" meanTravelTime="-1.00" meanOverlapTravelTime="-1.00" meanSpeed="-1.00" meanHaltsPerVehicle="-1.00" meanTimeLoss="-1.00" vehicleSum="0" meanSpeedWithin="13.37" meanHaltsPerVehicleWithin="0.00" meanDurationWithin="3.69" vehicleSumWithin="3" meanIntervalSpeedWithin="12.88" meanIntervalHaltsPerVehicleWithin="0.00" meanIntervalDurationWithin="1.00" meanTimeLossWithin="0.10"/>
    <interval begin="11.00" end="12.00" id="e1det_EW_1_0" nVehContrib="0" flow="0.00" occupancy="15.01" speed="-1.00" length="-1.00" nVehEntered="1"/>
    <interval begin="11.00" end="12.00" id="e1det_NS_1_0" nVehContrib="1" flow="3600.00" occupancy="71.34" speed="7.01" length="5.00" nVehEntered="1"/>
    <interval begin="11.00" end="12.00" id="e1det_WE_1_0" nVehContrib="0" flow="0.00" occupancy="28.47" speed="-1.00" length="-1.00" nVehEntered="1"/>
   <interval begin="11.00" end="12.00" id="e3_gneJ1" meanTravelTime="-1.00" meanOverlapTravelTime="-1.00" meanSpeed="-1.00" meanHaltsPerVehicle="-1.00" meanTimeLoss="-1.00" vehicleSum="0" meanSpeedWithin="13.18" meanHaltsPerVehicleWithin="0.00" meanDurationWithin="3.16" vehicleSumWithin="6" meanIntervalSpeedWithin="11.77" meanIntervalHaltsPerVehicleWithin="0.00" meanIntervalDurationWithin="1.00" meanTimeLossWithin="0.15"/>
    <interval begin="12.00" end="13.00" id="e1det_EW_1_0" nVehContrib="1" flow="3600.00" occupancy="47.11" speed="8.05" length="5.00" nVehEntered="0"/>
    <interval begin="12.00" end="13.00" id="e1det_NS_1_0" nVehContrib="0" flow="0.00" occupancy="0.00" speed="-1.00" length="-1.00" nVehEntered="0"/>
    <interval begin="12.00" end="13.00" id="e1det_WE_1_0" nVehContrib="1" flow="3600.00" occupancy="35.69" speed="7.79" length="5.00" nVehEntered="0"/>
   <interval begin="12.00" end="13.00" id="e3_gneJ1" meanTravelTime="-1.00" meanOverlapTravelTime="-1.00" meanSpeed="-1.00" meanHaltsPerVehicle="-1.00" meanTimeLoss="-1.00" vehicleSum="0" meanSpeedWithin="12.62" meanHaltsPerVehicleWithin="0.00" meanDurationWithin="4.16" vehicleSumWithin="6" meanIntervalSpeedWithin="10.16" meanIntervalHaltsPerVehicleWithin="0.00" meanIntervalDurationWithin="1.00" meanTimeLossWithin="0.23"/>
    <interval begin="13.00" end="14.00" id="e1det_EW_1_0" nVehContrib="0" flow="0.00" occupancy="0.00" speed="-1.00" length="-1.00" nVehEntered="0"/>
    <interval begin="13.00" end="14.00" id="e1det_NS_1_0" nVehContrib="0" flow="0.00" occupancy="0.00" speed="-1.00" length="-1.00" nVehEntered="0"/>
    <interval begin="13.00" end="14.00" id="e1det_WE_1_0" nVehContrib="0" flow="0.00" occupancy="0.00" speed="-1.00" length="-1.00" nVehEntered="0"/>
   <interval begin="13.00" end="14.00" id="e3_gneJ1" meanTravelTime="-1.00" meanOverlapTravelTime="-1.00" meanSpeed="-1.00" meanHaltsPerVehicle="-1.00" meanTimeLoss="-1.00" vehicleSum="0" meanSpeedWithin="11.92" meanHaltsPerVehicleWithin="0.17" meanDurationWithin="5.16" vehicleSumWithin="6" meanIntervalSpeedWithin="8.61" meanIntervalHaltsPerVehicleWithin="0.17" meanIntervalDurationWithin="1.00" meanTimeLossWithin="0.32"/>
    <interval begin="14.00" end="15.00" id="e1det_EW_1_0" nVehContrib="0" flow="0.00" occupancy="2.91" speed="-1.00" length="-1.00" nVehEntered="1"/>
    <interval begin="14.00" end="15.00" id="e1det_NS_1_0" nVehContrib="1" flow="3600.00" occupancy="46.46" speed="10.76" length="5.00" nVehEntered="1"/>
    <interval begin="14.00" end="15.00" id="e1det_WE_1_0" nVehContrib="0" flow="0.00" occupancy="0.00" speed="-1.00" length="-1.00" nVehEntered="0"/>
   <interval begin="14.00" end="15.00" id="e3_gneJ1" meanTravelTime="-1.00" meanOverlapTravelTime="-1.00" meanSpeed="-1.00" meanHaltsPerVehicle="-1.00" meanTimeLoss="-1.00" vehicleSum="0" meanSpeedWithin="11.51" meanHaltsPerVehicleWithin="0.22" meanDurationWithin="4.66" vehicleSumWithin="9" meanIntervalSpeedWithin="9.17" meanIntervalHaltsPerVehicleWithin="0.11" meanIntervalDurationWithin="1.00" meanTimeLossWithin="0.31"/>
    <interval begin="15.00" end="16.00" id="e1det_EW_1_0" nVehContrib="1" flow="3600.00" occupancy="70.86" speed="6.78" length="5.00" nVehEntered="0"/>
    <interval begin="15.00" end="16.00" id="e1det_NS_1_0" nVehContrib="0" flow="0.00" occupancy="0.00" speed="-1.00" length="-1.00" nVehEntered="0"/>
    <interval begin="15.00" end="16.00" id="e1det_WE_1_0" nVehContrib="0" flow="0.00" occupancy="11.60" speed="-1.00" length="-1.00" nVehEntered="1"/>
   <interval begin="15.00" end="16.00" id="e3_gneJ1" meanTravelTime="-1.00" meanOverlapTravelTime="-1.00" meanSpeed="-1.00" meanHaltsPerVehicle="-1.00" meanTimeLoss="-1.00" vehicleSum="0" meanSpeedWithin="10.89" meanHaltsPerVehicleWithin="0.44" meanDurationWithin="5.66" vehicleSumWithin="9" meanIntervalSpeedWithin="7.49" meanIntervalHaltsPerVehicleWithin="0.22" meanIntervalDurationWithin="1.00" meanTimeLossWithin="0.44"/>
    <interval begin="16.00" end="17.00" id="e1det_EW_1_0" nVehContrib="0" flow="0.00" occupancy="0.00" speed="-1.00" length="-1.00" nVehEntered="0"/>
    <interval begin="16.00" end="17.00" id="e1det_NS_1_0" nVehContrib="0" flow="0.00" occupancy="0.00" speed="-1.00" length="-1.00" nVehEntered="0"/>
    <interval begin="16.00" end="17.00" id="e1det_WE_1_0" nVehContrib="0" flow="0.00" occupancy="100.00" speed="-1.00" length="-1.00" nVehEntered="0"/>
   <interval begin="16.00" end="17.00" id="e3_gneJ1" meanTravelTime="-1.00" meanOverlapTravelTime="-1.00" meanSpeed="-1.00" meanHaltsPerVehicle="-1.00" meanTimeLoss="-1.00" vehicleSum="0" meanSpeedWithin="10.47" meanHaltsPerVehicleWithin="0.60" meanDurationWithin="6.11" vehicleSumWithin="10" meanIntervalSpeedWithin="7.59" meanIntervalHaltsPerVehicleWithin="0.20" meanIntervalDurationWithin="1.00" meanTimeLossWithin="0.38"/>
    <interval begin="17.00" end="18.00" id="e1det_EW_1_0" nVehContrib="0" flow="0.00" occupancy="0.00" speed="-1.00" length="-1.00" nVehEntered="0"/>
    <interval begin="17.00" end="18.00" id="e1det_NS_1_0" nVehContrib="0" flow="0.00" occupancy="37.72" speed="-1.00" length="-1.00" nVehEntered="1"/>
    <interval begin="17.00" end="18.00" id="e1det_WE_1_0" nVehContrib="0" flow="0.00" occupancy="100.00" speed="-1.00" length="-1.00" nVehEntered="0"/>
   <interval begin="17.00" end="18.00" id="e3_gneJ1" meanTravelTime="-1.00" meanOverlapTravelTime="-1.00" meanSpeed="-1.00" meanHaltsPerVehicle="-1.00" meanTimeLoss="-1.00" vehicleSum="0" meanSpeedWithin="10.21" meanHaltsPerVehicleWithin="0.58" meanDurationWithin="6.19" vehicleSumWithin="12" meanIntervalSpeedWithin="8.12" meanIntervalHaltsPerVehicleWithin="0.08" meanIntervalDurationWithin="1.00" meanTimeLossWithin="0.36"/>
    <interval begin="18.00" end="19.00" id="e1det_EW_1_0" nVehContrib="0" flow="0.00" occupancy="42.58" speed="-1.00" length="-1.00" nVehEntered="1"/>
    <interval begin="18.00" end="19.00" id="e1det_NS_1_0" nVehContrib="0" flow="0.00" occupancy="100.00" speed="-1.00" length="-1.00" nVehEntered="0"/>
    <interval begin="18.00" end="19.00" id="e1det_WE_1_0" nVehContrib="1" flow="3600.00" occupancy="49.41" speed="1.92" length="5.00" nVehEntered="0"/>
   <interval begin="18.00" end="19.00" id="e3_gneJ1" meanTravelTime="9.77" meanOverlapTravelTime="10.11" meanSpeed="11.31" meanHaltsPerVehicle="0.00" meanTimeLoss="1.92" vehicleSum="1" meanSpeedWithin="9.59" meanHaltsPerVehicleWithin="0.73" meanDurationWithin="6.77" vehicleSumWithin="11" meanIntervalSpeedWithin="7.32" meanIntervalHaltsPerVehicleWithin="0.09" meanIntervalDurationWithin="1.00" meanTimeLossWithin="0.44"/>
    <interval begin="19.00" end="20.00" id="e1det_EW_1_0" nVehContrib="1" flow="3600.00" occupancy="37.14" speed="6.27" length="5.00" nVehEntered="0"/>
    <interval begin="19.00" end="20.00" id="e1det_NS_1_0" nVehContrib="1" flow="3600.00" occupancy="65.98" speed="2.45" length="5.00" nVehEntered="0"/>
    <interval begin="19.00" end="20.00" id="e1det_WE_1_0" nVehContrib="0" flow="0.00" occupancy="0.00" speed="-1.00" length="-1.00" nVehEntered="0"/>
   <interval begin="19.00" end="20.00" id="e3_gneJ1" meanTravelTime="10.25" meanOverlapTravelTime="10.60" meanSpeed="10.65" meanHaltsPerVehicle="0.00" meanTimeLoss="2.48" vehicleSum="1" meanSpeedWithin="8.94" meanHaltsPerVehicleWithin="0.80" meanDurationWithin="7.31" vehicleSumWithin="10" meanIntervalSpeedWithin="6.46" meanIntervalHaltsPerVehicleWithin="0.00" meanIntervalDurationWithin="1.00" meanTimeLossWithin="0.51"/>
    <interval begin="20.00" end="21.00" id="e1det_EW_1_0" nVehContrib="0" flow="0.00" occupancy="0.00" speed="-1.00" length="-1.00" nVehEntered="0"/>
    <interval begin="20.00" end="21.00" id="e1det_NS_1_0" nVehContrib="0" flow="0.00" occupancy="0.00" speed="-1.00" length="-1.00" nVehEntered="0"/>
    <interval begin="20.00" end="21.00" id="e1det_WE_1_0" nVehContrib="0" flow="0.00" occupancy="29.42" speed="-1.00" length="-1.00" nVehEntered="1"/>
   <interval begin="20.00" end="21.00" id="e3_gneJ1" meanTravelTime="-1.00" meanOverlapTravelTime="-1.00" meanSpeed="-1.00" meanHaltsPerVehicle="-1.00" meanTimeLoss="-1.00" vehicleSum="0" meanSpeedWithin="8.95" meanHaltsPerVehicleWithin="0.83" meanDurationWithin="7.19" vehicleSumWithin="12" meanIntervalSpeedWithin="6.55" meanIntervalHaltsPerVehicleWithin="0.17" meanIntervalDurationWithin="1.00" meanTimeLossWithin="0.49"/>
    <interval begin="21.00" end="22.00" id="e1det_EW_1_0" nVehContrib="0" flow="0.00" occupancy="0.00" speed="-1.00" length="-1.00" nVehEntered="0"/>
    <interval begin="21.00" end="22.00" id="e1det_NS_1_0" nVehContrib="0" flow="0.00" occupancy="10.40" speed="-1.00" length="-1.00" nVehEntered="1"/>
    <interval begin="21.00" end="22.00" id="e1det_WE_1_0" nVehContrib="0" flow="0.00" occupancy="100.00" speed="-1.00" length="-1.00" nVehEntered="0"/>
   <interval begin="21.00" end="22.00" id="e3_gneJ1" meanTravelTime="-1.00" meanOverlapTravelTime="-1.00" meanSpeed="-1.00" meanHaltsPerVehicle="-1.00" meanTimeLoss="-1.00" vehicleSum="0" meanSpeedWithin="8.91" meanHaltsPerVehicleWithin="0.92" meanDurationWithin="7.70" vehicleSumWithin="13" meanIntervalSpeedWithin="6.82" meanIntervalHaltsPerVehicleWithin="0.15" meanIntervalDurationWithin="1.00" meanTimeLossWithin="0.46"/>
    <interval begin="22.00" end="23.00" id="e1det_EW_1_0" nVehContrib="0" flow="0.00" occupancy="82.87" speed="-1.00" length="-1.00" nVehEntered="1"/>
    <interval begin="22.00" end="23.00" id="e1det_NS_1_0" nVehContrib="0" flow="0.00" occupancy="100.00" speed="-1.00" length="-1.00" nVehEntered="0"/>
    <interval begin="22.00" end="23.00" id="e1det_WE_1_0" nVehContrib="0" flow="0.00" occupancy="100.00" speed="-1.00" length="-1.00" nVehEntered="0"/>
   <interval begin="22.00" end="23.00" id="e3_gneJ1" meanTravelTime="10.20" meanOverlapTravelTime="10.56" meanSpeed="10.71" meanHaltsPerVehicle="0.00" meanTimeLoss="2.41" vehicleSum="1" meanSpeedWithin="8.85" meanHaltsPerVehicleWithin="1.00" meanDurationWithin="7.37" vehicleSumWithin="14" meanIntervalSpeedWithin="6.85" meanIntervalHaltsPerVehicleWithin="0.14" meanIntervalDurationWithin="1.00" meanTimeLossWithin="0.46"/>
    <interval begin="23.00" end="24.00" id="e1det_EW_1_0" nVehContrib="1" flow="3600.00" occupancy="35.21" speed="4.23" length="5.00" nVehEntered="0"/>
    <interval begin="23.00" end="24.00" id="e1det_NS_1_0" nVehContrib="1" flow="3600.00" occupancy="8.05" speed="4.22" length="5.00" nVehEntered="0"/>
    <interval begin="23.00" end="24.00" id="e1det_WE_1_0" nVehContrib="0" flow="0.00" occupancy="100.00" speed="-1.00" length="-1.00" nVehEntered="0"/>
   <interval begin="23.00" end="24.00" id="e3_gneJ1" meanTravelTime="15.38" meanOverlapTravelTime="15.77" meanSpeed="7.58" meanHaltsPerVehicle="3.00" meanTimeLoss="6.25" vehicleSum="1" meanSpeedWithin="8.68" meanHaltsPerVehicleWithin="1.00" meanDurationWithin="7.25" vehicleSumWithin="14" meanIntervalSpeedWithin="6.27" meanIntervalHaltsPerVehicleWithin="0.21" meanIntervalDurationWithin="1.00" meanTimeLossWithin="0.54"/>
    <interval begin="24.00" end="25.00" id="e1det_EW_1_0" nVehContrib="0" flow="0.00" occupancy="0.00" speed="-1.00" length="-1.00" nVehEntered="0"/>
    <interval begin="24.00" end="25.00" id="e1det_NS_1_0" nVehContrib="0" flow="0.00" occupancy="0.00" speed="-1.00" length="-1.00" nVehEntered="0"/>
    <interval begin="24.00" end="25.00" id="e1det_WE_1_0" nVehContrib="0" flow="0.00" occupancy="100.00" speed="-1.00" length="-1.00" nVehEntered="0"/>
   <interval begin="24.00" end="25.00" id="e3_gneJ1" meanTravelTime="-1.00" meanOverlapTravelTime="-1.00" meanSpeed="-1.00" meanHaltsPerVehicle="-1.00" meanTimeLoss="-1.00" vehicleSum="0" meanSpeedWithin="8.11" meanHaltsPerVehicleWithin="1.29" meanDurationWithin="8.25" vehicleSumWithin="14" meanIntervalSpeedWithin="5.61" meanIntervalHaltsPerVehicleWithin="0.29" meanIntervalDurationWithin="1.00" meanTimeLossWithin="0.57"/>
    <interval begin="25.00" end="26.00" id="e1det_EW_1_0" nVehContrib="0" flow="0.00" occupancy="51.39" speed="-1.00" length="-1.00" nVehEntered="1"/>
    <interval begin="25.00" end="26.00" id="e1det_NS_1_0" nVehContrib="0" flow="0.00" occupancy="50.51" speed="-1.00" length="-1.00" nVehEntered="1"/>
    <interval begin="25.00" end="26.00" id="e1det_WE_1_0" nVehContrib="0" flow="0.00" occupancy="100.00" speed="-1.00" length="-1.00" nVehEntered="0"/>
   <interval begin="25.00" end="26.00" id="e3_gneJ1" meanTravelTime="13.72" meanOverlapTravelTime="14.09" meanSpeed="8.01" meanHaltsPerVehicle="3.00" meanTimeLoss="5.87" vehicleSum="1" meanSpeedWithin="7.76" meanHaltsPerVehicleWithin="1.29" meanDurationWithin="8.23" vehicleSumWithin="14" meanIntervalSpeedWithin="5.28" meanIntervalHaltsPerVehicleWithin="0.21" meanIntervalDurationWithin="1.00" meanTimeLossWithin="0.59"/>
    <interval begin="26.00" end="27.00" id="e1det_EW_1_0" nVehContrib="1" flow="3600.00" occupancy="11.78" speed="7.92" length="5.00" nVehEntered="0"/>
    <interval begin="26.00" end="27.00" id="e1det_NS_1_0" nVehContrib="0" flow="0.00" occupancy="100.00" speed="-1.00" length="-1.00" nVehEntered="0"/>
    <interval begin="26.00" end="27.00" id="e1det_WE_1_0" nVehContrib="1" flow="3600.00" occupancy="93.14" speed="0.80" length="5.00" nVehEntered="0"/>
   <interval begin="26.00" end="27.00" id="e3_gneJ1" meanTravelTime="-1.00" meanOverlapTravelTime="-1.00" meanSpeed="-1.00" meanHaltsPerVehicle="-1.00" meanTimeLoss="-1.00" vehicleSum="0" meanSpeedWithin="7.76" meanHaltsPerVehicleWithin="1.44" meanDurationWithin="8.24" vehicleSumWithin="16" meanIntervalSpeedWithin="5.57" meanIntervalHaltsPerVehicleWithin="0.31" meanIntervalDurationWithin="1.00" meanTimeLossWithin="0.54"/>
    <interval begin="27.00" end="28.00" id="e1det_EW_1_0" nVehContrib="0" flow="0.00" occupancy="5.70" speed="-1.00" length="-1.00" nVehEntered="1"/>
    <interval begin="27.00" end="28.00" id="e1det_NS_1_0" nVehContrib="0" flow="0.00" occupancy="100.00" speed="-1.00" length="-1.00" nVehEntered="0"/>
    <interval begin="27.00" end="28.00" id="e1det_WE_1_0" nVehContrib="0" flow="0.00" occupancy="0.00" speed="-1.00" length="-1.00" nVehEntered="0"/>
   <interval begin="27.00" end="28.00" id="e3_gneJ1" meanTravelTime="-1.00" meanOverlapTravelTime="-1.00" meanSpeed="-1.00" meanHaltsPerVehicle="-1.00" meanTimeLoss="-1.00" vehicleSum="0" meanSpeedWithin="7.35" meanHaltsPerVehicleWithin="1.81" meanDurationWithin="9.24" vehicleSumWithin="16" meanIntervalSpeedWithin="5.39" meanIntervalHaltsPerVehicleWithin="0.38" meanIntervalDurationWithin="1.00" meanTimeLossWithin="0.58"/>
    <interval begin="28.00" end="29.00" id="e1det_EW_1_0" nVehContrib="1" flow="3600.00" occupancy="60.68" speed="7.53" length="5.00" nVehEntered="0"/>
    <interval begin="28.00" end="29.00" id="e1det_NS_1_0" nVehContrib="0" flow="0.00" occupancy="100.00" speed="-1.00" length="-1.00" nVehEntered="0"/>
    <interval begin="28.00" end="29.00" id="e1det_WE_1_0" nVehContrib="0" flow="0.00" occupancy="0.00" speed="-1.00" length="-1.00" nVehEntered="0"/>
   <interval begin="28.00" end="29.00" id="e3_gneJ1" meanTravelTime="13.62" meanOverlapTravelTime="14.01" meanSpeed="8.14" meanHaltsPerVehicle="1.00" meanTimeLoss="5.23" vehicleSum="2" meanSpeedWithin="7.14" meanHaltsPerVehicleWithin="2.13" meanDurationWithin="8.43" vehicleSumWithin="16" meanIntervalSpeedWithin="4.89" meanIntervalHaltsPerVehicleWithin="0.44" meanIntervalDurationWithin="1.00" meanTimeLossWithin="0.60"/>
    <interval begin="29.00" end="30.00" id="e1det_EW_1_0" nVehContrib="0" flow="0.00" occupancy="0.00" speed="-1.00" length="-1.00" nVehEntered="0"/>
    <interval begin="29.00" end="30.00" id="e1det_NS_1_0" nVehContrib="1" flow="3600.00" occupancy="11.11" speed="1.38" length="5.00" nVehEntered="0"/>
    <interval begin="29.00" end="30.00" id="e1det_WE_1_0" nVehContrib="0" flow="0.00" occupancy="0.00" speed="-1.00" length="-1.00" nVehEntered="0"/>
   <interval begin="29.00" end="30.00" id="e3_gneJ1" meanTravelTime="-1.00" meanOverlapTravelTime="-1.00" meanSpeed="-1.00" meanHaltsPerVehicle="-1.00" meanTimeLoss="-1.00" vehicleSum="0" meanSpeedWithin="7.05" meanHaltsPerVehicleWithin="2.35" meanDurationWithin="8.97" vehicleSumWithin="17" meanIntervalSpeedWithin="4.93" meanIntervalHaltsPerVehicleWithin="0.35" meanIntervalDurationWithin="1.00" meanTimeLossWithin="0.60"/>
    <interval begin="30.00" end="31.00" id="e1det_EW_1_0" nVehContrib="0" flow="0.00" occupancy="21.58" speed="-1.00" length="-1.00" nVehEntered="1"/>
    <interval begin="30.00" end="31.00" id="e1det_NS_1_0" nVehContrib="0" flow="0.00" occupancy="17.56" speed="-1.00" length="-1.00" nVehEntered="1"/>
    <interval begin="30.00" end="31.00" id="e1det_WE_1_0" nVehContrib="0" flow="0.00" occupancy="0.00" speed="-1.00" length="-1.00" nVehEntered="0"/>
   <interval begin="30.00" end="31.00" id="e3_gneJ1" meanTravelTime="-1.00" meanOverlapTravelTime="-1.00" meanSpeed="-1.00" meanHaltsPerVehicle="-1.00" meanTimeLoss="-1.00" vehicleSum="0" meanSpeedWithin="6.60" meanHaltsPerVehicleWithin="2.76" meanDurationWithin="9.97" vehicleSumWithin="17" meanIntervalSpeedWithin="4.46" meanIntervalHaltsPerVehicleWithin="0.41" meanIntervalDurationWithin="1.00" meanTimeLossWithin="0.67"/>
    <interval begin="31.00" end="32.00" id="e1det_EW_1_0" nVehContrib="1" flow="3600.00" occupancy="69.23" speed="5.51" length="5.00" nVehEntered="0"/>
    <interval begin="31.00" end="32.00" id="e1det_NS_1_0" nVehContrib="0" flow="0.00" occupancy="100.00" speed="-1.00" length="-1.00" nVehEntered="0"/>
    <interval begin="31.00" end="32.00" id="e1det_WE_1_0" nVehContrib="0" flow="0.00" occupancy="0.00" speed="-1.00" length="-1.00" nVehEntered="0"/>
   <interval begin="31.00" end="32.00" id="e3_gneJ1" meanTravelTime="13.15" meanOverlapTravelTime="13.61" meanSpeed="8.96" meanHaltsPerVehicle="0.00" meanTimeLoss="3.08" vehicleSum="1" meanSpeedWithin="6.03" meanHaltsPerVehicleWithin="3.50" meanDurationWithin="10.68" vehicleSumWithin="16" meanIntervalSpeedWithin="3.73" meanIntervalHaltsPerVehicleWithin="0.56" meanIntervalDurationWithin="1.00" meanTimeLossWithin="0.73"/>
    <interval begin="32.00" end="33.00" id="e1det_EW_1_0" nVehContrib="0" flow="0.00" occupancy="0.00" speed="-1.00" length="-1.00" nVehEntered="0"/>
    <interval begin="32.00" end="33.00" id="e1det_NS_1_0" nVehContrib="0" flow="0.00" occupancy="100.00" speed="-1.00" length="-1.00" nVehEntered="0"/>
    <interval begin="32.00" end="33.00" id="e1det_WE_1_0" nVehContrib="0" flow="0.00" occupancy="0.00" speed="-1.00" length="-1.00" nVehEntered="0"/>
   <interval begin="32.00" end="33.00" id="e3_gneJ1" meanTravelTime="11.04" meanOverlapTravelTime="11.37" meanSpeed="9.80" meanHaltsPerVehicle="0.00" meanTimeLoss="3.42" vehicleSum="1" meanSpeedWithin="5.83" meanHaltsPerVehicleWithin="3.56" meanDurationWithin="9.91" vehicleSumWithin="18" meanIntervalSpeedWithin="3.91" meanIntervalHaltsPerVehicleWithin="0.44" meanIntervalDurationWithin="1.00" meanTimeLossWithin="0.64"/>