<?xml version="1.0" encoding="UTF-8"?>

<!-- generated on 03/01/19 11:40:43 by Eclipse SUMO GUI Version 1.0.1
<configuration xmlns:xsi="http://www.w3.org/2001/XMLSchema-instance" xsi:noNamespaceSchemaLocation="http://sumo.dlr.de/xsd/sumoConfiguration.xsd">

    <input>
        <net-file value="c:\users\isaia\onedrive\documents\github\gym-sumo-envs\gym_traffic\envs\config\Y-Intersection\yIntersection.net.xml"/>
        <route-files value="tmp.rou.xml"/>
        <additional-files value="c:\users\isaia\onedrive\documents\github\gym-sumo-envs\gym_traffic\envs\config\Y-Intersection\yIntersection.add.xml"/>
    </input>

    <traci_server>
        <remote-port value="56674"/>
    </traci_server>

    <gui_only>
        <quit-on-end value="true"/>
        <start value="true"/>
    </gui_only>

</configuration>
-->

<detector xmlns:xsi="http://www.w3.org/2001/XMLSchema-instance" xsi:noNamespaceSchemaLocation="http://sumo.dlr.de/xsd/det_e1_file.xsd">
    <interval begin="0.00" end="1.00" id="e1det_EW_1_0" nVehContrib="0" flow="0.00" occupancy="0.00" speed="-1.00" length="-1.00" nVehEntered="0"/>
    <interval begin="0.00" end="1.00" id="e1det_NS_1_0" nVehContrib="0" flow="0.00" occupancy="0.00" speed="-1.00" length="-1.00" nVehEntered="0"/>
    <interval begin="0.00" end="1.00" id="e1det_WE_1_0" nVehContrib="0" flow="0.00" occupancy="0.00" speed="-1.00" length="-1.00" nVehEntered="0"/>
   <interval begin="0.00" end="1.00" id="e3_gneJ1" meanTravelTime="-1.00" meanOverlapTravelTime="-1.00" meanSpeed="-1.00" meanHaltsPerVehicle="-1.00" meanTimeLoss="-1.00" vehicleSum="0" meanSpeedWithin="-1.00" meanHaltsPerVehicleWithin="-1.00" meanDurationWithin="-1.00" vehicleSumWithin="0" meanIntervalSpeedWithin="-1.00" meanIntervalHaltsPerVehicleWithin="-1.00" meanIntervalDurationWithin="-1.00" meanTimeLossWithin="-1.00"/>
    <interval begin="1.00" end="2.00" id="e1det_EW_1_0" nVehContrib="0" flow="0.00" occupancy="0.00" speed="-1.00" length="-1.00" nVehEntered="0"/>
    <interval begin="1.00" end="2.00" id="e1det_NS_1_0" nVehContrib="0" flow="0.00" occupancy="0.00" speed="-1.00" length="-1.00" nVehEntered="0"/>
    <interval begin="1.00" end="2.00" id="e1det_WE_1_0" nVehContrib="0" flow="0.00" occupancy="0.00" speed="-1.00" length="-1.00" nVehEntered="0"/>
   <interval begin="1.00" end="2.00" id="e3_gneJ1" meanTravelTime="-1.00" meanOverlapTravelTime="-1.00" meanSpeed="-1.00" meanHaltsPerVehicle="-1.00" meanTimeLoss="-1.00" vehicleSum="0" meanSpeedWithin="-1.00" meanHaltsPerVehicleWithin="-1.00" meanDurationWithin="-1.00" vehicleSumWithin="0" meanIntervalSpeedWithin="-1.00" meanIntervalHaltsPerVehicleWithin="-1.00" meanIntervalDurationWithin="-1.00" meanTimeLossWithin="-1.00"/>
    <interval begin="2.00" end="3.00" id="e1det_EW_1_0" nVehContrib="0" flow="0.00" occupancy="0.00" speed="-1.00" length="-1.00" nVehEntered="0"/>
    <interval begin="2.00" end="3.00" id="e1det_NS_1_0" nVehContrib="0" flow="0.00" occupancy="0.00" speed="-1.00" length="-1.00" nVehEntered="0"/>
    <interval begin="2.00" end="3.00" id="e1det_WE_1_0" nVehContrib="0" flow="0.00" occupancy="0.00" speed="-1.00" length="-1.00" nVehEntered="0"/>
   <interval begin="2.00" end="3.00" id="e3_gneJ1" meanTravelTime="-1.00" meanOverlapTravelTime="-1.00" meanSpeed="-1.00" meanHaltsPerVehicle="-1.00" meanTimeLoss="-1.00" vehicleSum="0" meanSpeedWithin="-1.00" meanHaltsPerVehicleWithin="-1.00" meanDurationWithin="-1.00" vehicleSumWithin="0" meanIntervalSpeedWithin="-1.00" meanIntervalHaltsPerVehicleWithin="-1.00" meanIntervalDurationWithin="-1.00" meanTimeLossWithin="-1.00"/>
    <interval begin="3.00" end="4.00" id="e1det_EW_1_0" nVehContrib="0" flow="0.00" occupancy="0.00" speed="-1.00" length="-1.00" nVehEntered="0"/>
    <interval begin="3.00" end="4.00" id="e1det_NS_1_0" nVehContrib="0" flow="0.00" occupancy="0.00" speed="-1.00" length="-1.00" nVehEntered="0"/>
    <interval begin="3.00" end="4.00" id="e1det_WE_1_0" nVehContrib="0" flow="0.00" occupancy="0.00" speed="-1.00" length="-1.00" nVehEntered="0"/>
   <interval begin="3.00" end="4.00" id="e3_gneJ1" meanTravelTime="-1.00" meanOverlapTravelTime="-1.00" meanSpeed="-1.00" meanHaltsPerVehicle="-1.00" meanTimeLoss="-1.00" vehicleSum="0" meanSpeedWithin="-1.00" meanHaltsPerVehicleWithin="-1.00" meanDurationWithin="-1.00" vehicleSumWithin="0" meanIntervalSpeedWithin="-1.00" meanIntervalHaltsPerVehicleWithin="-1.00" meanIntervalDurationWithin="-1.00" meanTimeLossWithin="-1.00"/>
    <interval begin="4.00" end="5.00" id="e1det_EW_1_0" nVehContrib="0" flow="0.00" occupancy="0.00" speed="-1.00" length="-1.00" nVehEntered="0"/>
    <interval begin="4.00" end="5.00" id="e1det_NS_1_0" nVehContrib="0" flow="0.00" occupancy="0.00" speed="-1.00" length="-1.00" nVehEntered="0"/>
    <interval begin="4.00" end="5.00" id="e1det_WE_1_0" nVehContrib="0" flow="0.00" occupancy="0.00" speed="-1.00" length="-1.00" nVehEntered="0"/>
   <interval begin="4.00" end="5.00" id="e3_gneJ1" meanTravelTime="-1.00" meanOverlapTravelTime="-1.00" meanSpeed="-1.00" meanHaltsPerVehicle="-1.00" meanTimeLoss="-1.00" vehicleSum="0" meanSpeedWithin="-1.00" meanHaltsPerVehicleWithin="-1.00" meanDurationWithin="-1.00" vehicleSumWithin="0" meanIntervalSpeedWithin="-1.00" meanIntervalHaltsPerVehicleWithin="-1.00" meanIntervalDurationWithin="-1.00" meanTimeLossWithin="-1.00"/>
    <interval begin="5.00" end="6.00" id="e1det_EW_1_0" nVehContrib="0" flow="0.00" occupancy="0.00" speed="-1.00" length="-1.00" nVehEntered="0"/>
    <interval begin="5.00" end="6.00" id="e1det_NS_1_0" nVehContrib="0" flow="0.00" occupancy="0.00" speed="-1.00" length="-1.00" nVehEntered="0"/>
    <interval begin="5.00" end="6.00" id="e1det_WE_1_0" nVehContrib="0" flow="0.00" occupancy="0.00" speed="-1.00" length="-1.00" nVehEntered="0"/>
   <interval begin="5.00" end="6.00" id="e3_gneJ1" meanTravelTime="-1.00" meanOverlapTravelTime="-1.00" meanSpeed="-1.00" meanHaltsPerVehicle="-1.00" meanTimeLoss="-1.00" vehicleSum="0" meanSpeedWithin="-1.00" meanHaltsPerVehicleWithin="-1.00" meanDurationWithin="-1.00" vehicleSumWithin="0" meanIntervalSpeedWithin="-1.00" meanIntervalHaltsPerVehicleWithin="-1.00" meanIntervalDurationWithin="-1.00" meanTimeLossWithin="-1.00"/>
    <interval begin="6.00" end="7.00" id="e1det_EW_1_0" nVehContrib="0" flow="0.00" occupancy="0.00" speed="-1.00" length="-1.00" nVehEntered="0"/>
    <interval begin="6.00" end="7.00" id="e1det_NS_1_0" nVehContrib="0" flow="0.00" occupancy="0.00" speed="-1.00" length="-1.00" nVehEntered="0"/>
    <interval begin="6.00" end="7.00" id="e1det_WE_1_0" nVehContrib="0" flow="0.00" occupancy="0.00" speed="-1.00" length="-1.00" nVehEntered="0"/>
   <interval begin="6.00" end="7.00" id="e3_gneJ1" meanTravelTime="-1.00" meanOverlapTravelTime="-1.00" meanSpeed="-1.00" meanHaltsPerVehicle="-1.00" meanTimeLoss="-1.00" vehicleSum="0" meanSpeedWithin="-1.00" meanHaltsPerVehicleWithin="-1.00" meanDurationWithin="-1.00" vehicleSumWithin="0" meanIntervalSpeedWithin="-1.00" meanIntervalHaltsPerVehicleWithin="-1.00" meanIntervalDurationWithin="-1.00" meanTimeLossWithin="-1.00"/>
    <interval begin="7.00" end="8.00" id="e1det_EW_1_0" nVehContrib="0" flow="0.00" occupancy="0.00" speed="-1.00" length="-1.00" nVehEntered="0"/>
    <interval begin="7.00" end="8.00" id="e1det_NS_1_0" nVehContrib="0" flow="0.00" occupancy="0.00" speed="-1.00" length="-1.00" nVehEntered="0"/>
    <interval begin="7.00" end="8.00" id="e1det_WE_1_0" nVehContrib="0" flow="0.00" occupancy="0.00" speed="-1.00" length="-1.00" nVehEntered="0"/>
   <interval begin="7.00" end="8.00" id="e3_gneJ1" meanTravelTime="-1.00" meanOverlapTravelTime="-1.00" meanSpeed="-1.00" meanHaltsPerVehicle="-1.00" meanTimeLoss="-1.00" vehicleSum="0" meanSpeedWithin="11.88" meanHaltsPerVehicleWithin="0.00" meanDurationWithin="1.15" vehicleSumWithin="1" meanIntervalSpeedWithin="11.88" meanIntervalHaltsPerVehicleWithin="0.00" meanIntervalDurationWithin="1.00" meanTimeLossWithin="0.00"/>
    <interval begin="8.00" end="9.00" id="e1det_EW_1_0" nVehContrib="0" flow="0.00" occupancy="0.00" speed="-1.00" length="-1.00" nVehEntered="0"/>
    <interval begin="8.00" end="9.00" id="e1det_NS_1_0" nVehContrib="0" flow="0.00" occupancy="0.00" speed="-1.00" length="-1.00" nVehEntered="0"/>
    <interval begin="8.00" end="9.00" id="e1det_WE_1_0" nVehContrib="0" flow="0.00" occupancy="0.00" speed="-1.00" length="-1.00" nVehEntered="0"/>
   <interval begin="8.00" end="9.00" id="e3_gneJ1" meanTravelTime="-1.00" meanOverlapTravelTime="-1.00" meanSpeed="-1.00" meanHaltsPerVehicle="-1.00" meanTimeLoss="-1.00" vehicleSum="0" meanSpeedWithin="13.25" meanHaltsPerVehicleWithin="0.00" meanDurationWithin="1.81" vehicleSumWithin="3" meanIntervalSpeedWithin="13.45" meanIntervalHaltsPerVehicleWithin="0.00" meanIntervalDurationWithin="1.00" meanTimeLossWithin="0.00"/>
    <interval begin="9.00" end="10.00" id="e1det_EW_1_0" nVehContrib="0" flow="0.00" occupancy="0.00" speed="-1.00" length="-1.00" nVehEntered="0"/>
    <interval begin="9.00" end="10.00" id="e1det_NS_1_0" nVehContrib="0" flow="0.00" occupancy="0.00" speed="-1.00" length="-1.00" nVehEntered="0"/>
    <interval begin="9.00" end="10.00" id="e1det_WE_1_0" nVehContrib="0" flow="0.00" occupancy="0.00" speed="-1.00" length="-1.00" nVehEntered="0"/>
   <interval begin="9.00" end="10.00" id="e3_gneJ1" meanTravelTime="-1.00" meanOverlapTravelTime="-1.00" meanSpeed="-1.00" meanHaltsPerVehicle="-1.00" meanTimeLoss="-1.00" vehicleSum="0" meanSpeedWithin="13.42" meanHaltsPerVehicleWithin="0.00" meanDurationWithin="2.81" vehicleSumWithin="3" meanIntervalSpeedWithin="13.72" meanIntervalHaltsPerVehicleWithin="0.00" meanIntervalDurationWithin="1.00" meanTimeLossWithin="0.04"/>
    <interval begin="10.00" end="11.00" id="e1det_EW_1_0" nVehContrib="0" flow="0.00" occupancy="0.00" speed="-1.00" length="-1.00" nVehEntered="0"/>
    <interval begin="10.00" end="11.00" id="e1det_NS_1_0" nVehContrib="0" flow="0.00" occupancy="0.00" speed="-1.00" length="-1.00" nVehEntered="0"/>
    <interval begin="10.00" end="11.00" id="e1det_WE_1_0" nVehContrib="0" flow="0.00" occupancy="0.00" speed="-1.00" length="-1.00" nVehEntered="0"/>
   <interval begin="10.00" end="11.00" id="e3_gneJ1" meanTravelTime="-1.00" meanOverlapTravelTime="-1.00" meanSpeed="-1.00" meanHaltsPerVehicle="-1.00" meanTimeLoss="-1.00" vehicleSum="0" meanSpeedWithin="13.09" meanHaltsPerVehicleWithin="0.00" meanDurationWithin="3.81" vehicleSumWithin="3" meanIntervalSpeedWithin="12.20" meanIntervalHaltsPerVehicleWithin="0.00" meanIntervalDurationWithin="1.00" meanTimeLossWithin="0.14"/>
    <interval begin="11.00" end="12.00" id="e1det_EW_1_0" nVehContrib="0" flow="0.00" occupancy="0.00" speed="-1.00" length="-1.00" nVehEntered="0"/>
    <interval begin="11.00" end="12.00" id="e1det_NS_1_0" nVehContrib="0" flow="0.00" occupancy="0.00" speed="-1.00" length="-1.00" nVehEntered="0"/>
    <interval begin="11.00" end="12.00" id="e1det_WE_1_0" nVehContrib="0" flow="0.00" occupancy="0.00" speed="-1.00" length="-1.00" nVehEntered="0"/>
   <interval begin="11.00" end="12.00" id="e3_gneJ1" meanTravelTime="-1.00" meanOverlapTravelTime="-1.00" meanSpeed="-1.00" meanHaltsPerVehicle="-1.00" meanTimeLoss="-1.00" vehicleSum="0" meanSpeedWithin="13.19" meanHaltsPerVehicleWithin="0.00" meanDurationWithin="3.29" vehicleSumWithin="6" meanIntervalSpeedWithin="12.28" meanIntervalHaltsPerVehicleWithin="0.00" meanIntervalDurationWithin="1.00" meanTimeLossWithin="0.12"/>
    <interval begin="12.00" end="13.00" id="e1det_EW_1_0" nVehContrib="0" flow="0.00" occupancy="0.00" speed="-1.00" length="-1.00" nVehEntered="0"/>
    <interval begin="12.00" end="13.00" id="e1det_NS_1_0" nVehContrib="0" flow="0.00" occupancy="0.00" speed="-1.00" length="-1.00" nVehEntered="0"/>
    <interval begin="12.00" end="13.00" id="e1det_WE_1_0" nVehContrib="0" flow="0.00" occupancy="0.00" speed="-1.00" length="-1.00" nVehEntered="0"/>
   <interval begin="12.00" end="13.00" id="e3_gneJ1" meanTravelTime="-1.00" meanOverlapTravelTime="-1.00" meanSpeed="-1.00" meanHaltsPerVehicle="-1.00" meanTimeLoss="-1.00" vehicleSum="0" meanSpeedWithin="12.70" meanHaltsPerVehicleWithin="0.00" meanDurationWithin="4.29" vehicleSumWithin="6" meanIntervalSpeedWithin="10.39" meanIntervalHaltsPerVehicleWithin="0.00" meanIntervalDurationWithin="1.00" meanTimeLossWithin="0.21"/>
    <interval begin="13.00" end="14.00" id="e1det_EW_1_0" nVehContrib="0" flow="0.00" occupancy="0.00" speed="-1.00" length="-1.00" nVehEntered="0"/>
    <interval begin="13.00" end="14.00" id="e1det_NS_1_0" nVehContrib="0" flow="0.00" occupancy="0.00" speed="-1.00" length="-1.00" nVehEntered="0"/>
    <interval begin="13.00" end="14.00" id="e1det_WE_1_0" nVehContrib="0" flow="0.00" occupancy="0.00" speed="-1.00" length="-1.00" nVehEntered="0"/>
   <interval begin="13.00" end="14.00" id="e3_gneJ1" meanTravelTime="-1.00" meanOverlapTravelTime="-1.00" meanSpeed="-1.00" meanHaltsPerVehicle="-1.00" meanTimeLoss="-1.00" vehicleSum="0" meanSpeedWithin="11.87" meanHaltsPerVehicleWithin="0.00" meanDurationWithin="4.69" vehicleSumWithin="7" meanIntervalSpeedWithin="9.03" meanIntervalHaltsPerVehicleWithin="0.00" meanIntervalDurationWithin="1.00" meanTimeLossWithin="0.27"/>
    <interval begin="14.00" end="15.00" id="e1det_EW_1_0" nVehContrib="0" flow="0.00" occupancy="0.00" speed="-1.00" length="-1.00" nVehEntered="0"/>
    <interval begin="14.00" end="15.00" id="e1det_NS_1_0" nVehContrib="0" flow="0.00" occupancy="0.00" speed="-1.00" length="-1.00" nVehEntered="0"/>
    <interval begin="14.00" end="15.00" id="e1det_WE_1_0" nVehContrib="0" flow="0.00" occupancy="0.00" speed="-1.00" length="-1.00" nVehEntered="0"/>
   <interval begin="14.00" end="15.00" id="e3_gneJ1" meanTravelTime="-1.00" meanOverlapTravelTime="-1.00" meanSpeed="-1.00" meanHaltsPerVehicle="-1.00" meanTimeLoss="-1.00" vehicleSum="0" meanSpeedWithin="11.55" meanHaltsPerVehicleWithin="0.00" meanDurationWithin="4.80" vehicleSumWithin="9" meanIntervalSpeedWithin="9.02" meanIntervalHaltsPerVehicleWithin="0.00" meanIntervalDurationWithin="1.00" meanTimeLossWithin="0.31"/>
    <interval begin="15.00" end="16.00" id="e1det_EW_1_0" nVehContrib="0" flow="0.00" occupancy="0.00" speed="-1.00" length="-1.00" nVehEntered="0"/>
    <interval begin="15.00" end="16.00" id="e1det_NS_1_0" nVehContrib="0" flow="0.00" occupancy="0.00" speed="-1.00" length="-1.00" nVehEntered="0"/>
    <interval begin="15.00" end="16.00" id="e1det_WE_1_0" nVehContrib="0" flow="0.00" occupancy="0.00" speed="-1.00" length="-1.00" nVehEntered="0"/>
   <interval begin="15.00" end="16.00" id="e3_gneJ1" meanTravelTime="-1.00" meanOverlapTravelTime="-1.00" meanSpeed="-1.00" meanHaltsPerVehicle="-1.00" meanTimeLoss="-1.00" vehicleSum="0" meanSpeedWithin="11.08" meanHaltsPerVehicleWithin="0.00" meanDurationWithin="5.80" vehicleSumWithin="9" meanIntervalSpeedWithin="8.80" meanIntervalHaltsPerVehicleWithin="0.00" meanIntervalDurationWithin="1.00" meanTimeLossWithin="0.33"/>
    <interval begin="16.00" end="17.00" id="e1det_EW_1_0" nVehContrib="0" flow="0.00" occupancy="0.00" speed="-1.00" length="-1.00" nVehEntered="0"/>
    <interval begin="16.00" end="17.00" id="e1det_NS_1_0" nVehContrib="0" flow="0.00" occupancy="0.00" speed="-1.00" length="-1.00" nVehEntered="0"/>
    <interval begin="16.00" end="17.00" id="e1det_WE_1_0" nVehContrib="0" flow="0.00" occupancy="0.00" speed="-1.00" length="-1.00" nVehEntered="0"/>
   <interval begin="16.00" end="17.00" id="e3_gneJ1" meanTravelTime="-1.00" meanOverlapTravelTime="-1.00" meanSpeed="-1.00" meanHaltsPerVehicle="-1.00" meanTimeLoss="-1.00" vehicleSum="0" meanSpeedWithin="10.59" meanHaltsPerVehicleWithin="0.11" meanDurationWithin="6.80" vehicleSumWithin="9" meanIntervalSpeedWithin="8.25" meanIntervalHaltsPerVehicleWithin="0.11" meanIntervalDurationWithin="1.00" meanTimeLossWithin="0.35"/>
    <interval begin="17.00" end="18.00" id="e1det_EW_1_0" nVehContrib="0" flow="0.00" occupancy="0.00" speed="-1.00" length="-1.00" nVehEntered="0"/>
    <interval begin="17.00" end="18.00" id="e1det_NS_1_0" nVehContrib="0" flow="0.00" occupancy="0.00" speed="-1.00" length="-1.00" nVehEntered="0"/>
    <interval begin="17.00" end="18.00" id="e1det_WE_1_0" nVehContrib="0" flow="0.00" occupancy="0.00" speed="-1.00" length="-1.00" nVehEntered="0"/>
   <interval begin="17.00" end="18.00" id="e3_gneJ1" meanTravelTime="-1.00" meanOverlapTravelTime="-1.00" meanSpeed="-1.00" meanHaltsPerVehicle="-1.00" meanTimeLoss="-1.00" vehicleSum="0" meanSpeedWithin="10.46" meanHaltsPerVehicleWithin="0.25" meanDurationWithin="6.34" vehicleSumWithin="12" meanIntervalSpeedWithin="8.58" meanIntervalHaltsPerVehicleWithin="0.17" meanIntervalDurationWithin="1.00" meanTimeLossWithin="0.33"/>
    <interval begin="18.00" end="19.00" id="e1det_EW_1_0" nVehContrib="0" flow="0.00" occupancy="0.00" speed="-1.00" length="-1.00" nVehEntered="0"/>
    <interval begin="18.00" end="19.00" id="e1det_NS_1_0" nVehContrib="0" flow="0.00" occupancy="0.00" speed="-1.00" length="-1.00" nVehEntered="0"/>
    <interval begin="18.00" end="19.00" id="e1det_WE_1_0" nVehContrib="0" flow="0.00" occupancy="0.00" speed="-1.00" length="-1.00" nVehEntered="0"/>
   <interval begin="18.00" end="19.00" id="e3_gneJ1" meanTravelTime="9.55" meanOverlapTravelTime="9.89" meanSpeed="11.72" meanHaltsPerVehicle="0.00" meanTimeLoss="1.62" vehicleSum="1" meanSpeedWithin="9.80" meanHaltsPerVehicleWithin="0.55" meanDurationWithin="6.95" vehicleSumWithin="11" meanIntervalSpeedWithin="7.22" meanIntervalHaltsPerVehicleWithin="0.27" meanIntervalDurationWithin="1.00" meanTimeLossWithin="0.46"/>
    <interval begin="19.00" end="20.00" id="e1det_EW_1_0" nVehContrib="0" flow="0.00" occupancy="0.00" speed="-1.00" length="-1.00" nVehEntered="0"/>
    <interval begin="19.00" end="20.00" id="e1det_NS_1_0" nVehContrib="0" flow="0.00" occupancy="0.00" speed="-1.00" length="-1.00" nVehEntered="0"/>
    <interval begin="19.00" end="20.00" id="e1det_WE_1_0" nVehContrib="0" flow="0.00" occupancy="0.00" speed="-1.00" length="-1.00" nVehEntered="0"/>
   <interval begin="19.00" end="20.00" id="e3_gneJ1" meanTravelTime="10.42" meanOverlapTravelTime="10.79" meanSpeed="10.65" meanHaltsPerVehicle="0.00" meanTimeLoss="2.59" vehicleSum="1" meanSpeedWithin="9.08" meanHaltsPerVehicleWithin="0.90" meanDurationWithin="7.47" vehicleSumWithin="10" meanIntervalSpeedWithin="5.70" meanIntervalHaltsPerVehicleWithin="0.30" meanIntervalDurationWithin="1.00" meanTimeLossWithin="0.56"/>
    <interval begin="20.00" end="21.00" id="e1det_EW_1_0" nVehContrib="0" flow="0.00" occupancy="0.00" speed="-1.00" length="-1.00" nVehEntered="0"/>
    <interval begin="20.00" end="21.00" id="e1det_NS_1_0" nVehContrib="0" flow="0.00" occupancy="0.00" speed="-1.00" length="-1.00" nVehEntered="0"/>
    <interval begin="20.00" end="21.00" id="e1det_WE_1_0" nVehContrib="0" flow="0.00" occupancy="0.00" speed="-1.00" length="-1.00" nVehEntered="0"/>
   <interval begin="20.00" end="21.00" id="e3_gneJ1" meanTravelTime="-1.00" meanOverlapTravelTime="-1.00" meanSpeed="-1.00" meanHaltsPerVehicle="-1.00" meanTimeLoss="-1.00" vehicleSum="0" meanSpeedWithin="9.06" meanHaltsPerVehicleWithin="1.17" meanDurationWithin="7.34" vehicleSumWithin="12" meanIntervalSpeedWithin="5.74" meanIntervalHaltsPerVehicleWithin="0.42" meanIntervalDurationWithin="1.00" meanTimeLossWithin="0.55"/>
    <interval begin="21.00" end="22.00" id="e1det_EW_1_0" nVehContrib="0" flow="0.00" occupancy="0.00" speed="-1.00" length="-1.00" nVehEntered="0"/>
    <interval begin="21.00" end="22.00" id="e1det_NS_1_0" nVehContrib="0" flow="0.00" occupancy="0.00" speed="-1.00" length="-1.00" nVehEntered="0"/>
    <interval begin="21.00" end="22.00" id="e1det_WE_1_0" nVehContrib="0" flow="0.00" occupancy="0.00" speed="-1.00" length="-1.00" nVehEntered="0"/>
   <interval begin="21.00" end="22.00" id="e3_gneJ1" meanTravelTime="11.79" meanOverlapTravelTime="12.17" meanSpeed="10.00" meanHaltsPerVehicle="0.00" meanTimeLoss="2.93" vehicleSum="2" meanSpeedWithin="8.46" meanHaltsPerVehicleWithin="1.82" meanDurationWithin="6.83" vehicleSumWithin="11" meanIntervalSpeedWithin="3.80" meanIntervalHaltsPerVehicleWithin="0.55" meanIntervalDurationWithin="1.00" meanTimeLossWithin="0.71"/>
    <interval begin="22.00" end="23.00" id="e1det_EW_1_0" nVehContrib="0" flow="0.00" occupancy="0.00" speed="-1.00" length="-1.00" nVehEntered="0"/>
    <interval begin="22.00" end="23.00" id="e1det_NS_1_0" nVehContrib="0" flow="0.00" occupancy="0.00" speed="-1.00" length="-1.00" nVehEntered="0"/>
    <interval begin="22.00" end="23.00" id="e1det_WE_1_0" nVehContrib="0" flow="0.00" occupancy="0.00" speed="-1.00" length="-1.00" nVehEntered="0"/>
   <interval begin="22.00" end="23.00" id="e3_gneJ1" meanTravelTime="-1.00" meanOverlapTravelTime="-1.00" meanSpeed="-1.00" meanHaltsPerVehicle="-1.00" meanTimeLoss="-1.00" vehicleSum="0" meanSpeedWithin="7.65" meanHaltsPerVehicleWithin="2.55" meanDurationWithin="7.83" vehicleSumWithin="11" meanIntervalSpeedWithin="2.61" meanIntervalHaltsPerVehicleWithin="0.73" meanIntervalDurationWithin="1.00" meanTimeLossWithin="0.81"/>
    <interval begin="23.00" end="24.00" id="e1det_EW_1_0" nVehContrib="0" flow="0.00" occupancy="0.00" speed="-1.00" length="-1.00" nVehEntered="0"/>
    <interval begin="23.00" end="24.00" id="e1det_NS_1_0" nVehContrib="0" flow="0.00" occupancy="0.00" speed="-1.00" length="-1.00" nVehEntered="0"/>
    <interval begin="23.00" end="24.00" id="e1det_WE_1_0" nVehContrib="0" flow="0.00" occupancy="0.00" speed="-1.00" length="-1.00" nVehEntered="0"/>
   <interval begin="23.00" end="24.00" id="e3_gneJ1" meanTravelTime="-1.00" meanOverlapTravelTime="-1.00" meanSpeed="-1.00" meanHaltsPerVehicle="-1.00" meanTimeLoss="-1.00" vehicleSum="0" meanSpeedWithin="7.74" meanHaltsPerVehicleWithin="2.64" meanDurationWithin="7.27" vehicleSumWithin="14" meanIntervalSpeedWithin="3.45" meanIntervalHaltsPerVehicleWithin="0.64" meanIntervalDurationWithin="1.00" meanTimeLossWithin="0.71"/>
    <interval begin="24.00" end="25.00" id="e1det_EW_1_0" nVehContrib="0" flow="0.00" occupancy="0.00" speed="-1.00" length="-1.00" nVehEntered="0"/>
    <interval begin="24.00" end="25.00" id="e1det_NS_1_0" nVehContrib="0" flow="0.00" occupancy="0.00" speed="-1.00" length="-1.00" nVehEntered="0"/>
    <interval begin="24.00" end="25.00" id="e1det_WE_1_0" nVehContrib="0" flow="0.00" occupancy="0.00" speed="-1.00" length="-1.00" nVehEntered="0"/>
   <interval begin="24.00" end="25.00" id="e3_gneJ1" meanTravelTime="-1.00" meanOverlapTravelTime="-1.00" meanSpeed="-1.00" meanHaltsPerVehicle="-1.00" meanTimeLoss="-1.00" vehicleSum="0" meanSpeedWithin="6.98" meanHaltsPerVehicleWithin="3.21" meanDurationWithin="8.27" vehicleSumWithin="14" meanIntervalSpeedWithin="2.65" meanIntervalHaltsPerVehicleWithin="0.57" meanIntervalDurationWithin="1.00" meanTimeLossWithin="0.79"/>
    <interval begin="25.00" end="26.00" id="e1det_EW_1_0" nVehContrib="0" flow="0.00" occupancy="0.00" speed="-1.00" length="-1.00" nVehEntered="0"/>
    <interval begin="25.00" end="26.00" id="e1det_NS_1_0" nVehContrib="0" flow="0.00" occupancy="0.00" speed="-1.00" length="-1.00" nVehEntered="0"/>
    <interval begin="25.00" end="26.00" id="e1det_WE_1_0" nVehContrib="0" flow="0.00" occupancy="0.00" speed="-1.00" length="-1.00" nVehEntered="0"/>
   <interval begin="25.00" end="26.00" id="e3_gneJ1" meanTravelTime="-1.00" meanOverlapTravelTime="-1.00" meanSpeed="-1.00" meanHaltsPerVehicle="-1.00" meanTimeLoss="-1.00" vehicleSum="0" meanSpeedWithin="6.69" meanHaltsPerVehicleWithin="3.60" meanDurationWithin="8.73" vehicleSumWithin="15" meanIntervalSpeedWithin="2.73" meanIntervalHaltsPerVehicleWithin="0.60" meanIntervalDurationWithin="1.00" meanTimeLossWithin="0.76"/>
    <interval begin="26.00" end="27.00" id="e1det_EW_1_0" nVehContrib="0" flow="0.00" occupancy="0.00" speed="-1.00" length="-1.00" nVehEntered="0"/>
    <interval begin="26.00" end="27.00" id="e1det_NS_1_0" nVehContrib="0" flow="0.00" occupancy="0.00" speed="-1.00" length="-1.00" nVehEntered="0"/>
    <interval begin="26.00" end="27.00" id="e1det_WE_1_0" nVehContrib="0" flow="0.00" occupancy="0.00" speed="-1.00" length="-1.00" nVehEntered="0"/>
   <interval begin="26.00" end="27.00" id="e3_gneJ1" meanTravelTime="-1.00" meanOverlapTravelTime="-1.00" meanSpeed="-1.00" meanHaltsPerVehicle="-1.00" meanTimeLoss="-1.00" vehicleSum="0" meanSpeedWithin="6.31" meanHaltsPerVehicleWithin="3.65" meanDurationWithin="8.77" vehicleSumWithin="17" meanIntervalSpeedWithin="3.09" meanIntervalHaltsPerVehicleWithin="0.47" meanIntervalDurationWithin="1.00" meanTimeLossWithin="0.72"/>
    <interval begin="27.00" end="28.00" id="e1det_EW_1_0" nVehContrib="0" flow="0.00" occupancy="0.00" speed="-1.00" length="-1.00" nVehEntered="0"/>
    <interval begin="27.00" end="28.00" id="e1det_NS_1_0" nVehContrib="0" flow="0.00" occupancy="0.00" speed="-1.00" length="-1.00" nVehEntered="0"/>
    <interval begin="27.00" end="28.00" id="e1det_WE_1_0" nVehContrib="0" flow="0.00" occupancy="0.00" speed="-1.00" length="-1.00" nVehEntered="0"/>
   <interval begin="27.00" end="28.00" id="e3_gneJ1" meanTravelTime="-1.00" meanOverlapTravelTime="-1.00" meanSpeed="-1.00" meanHaltsPerVehicle="-1.00" meanTimeLoss="-1.00" vehicleSum="0" meanSpeedWithin="5.70" meanHaltsPerVehicleWithin="4.00" meanDurationWithin="9.77" vehicleSumWithin="17" meanIntervalSpeedWithin="2.91" meanIntervalHaltsPerVehicleWithin="0.35" meanIntervalDurationWithin="1.00" meanTimeLossWithin="0.78"/>
    <interval begin="28.00" end="29.00" id="e1det_EW_1_0" nVehContrib="0" flow="0.00" occupancy="0.00" speed="-1.00" length="-1.00" nVehEntered="0"/>
    <interval begin="28.00" end="29.00" id="e1det_NS_1_0" nVehContrib="0" flow="0.00" occupancy="0.00" speed="-1.00" length="-1.00" nVehEntered="0"/>
    <interval begin="28.00" end="29.00" id="e1det_WE_1_0" nVehContrib="0" flow="0.00" occupancy="0.00" speed="-1.00" length="-1.00" nVehEntered="0"/>
   <interval begin="28.00" end="29.00" id="e3_gneJ1" meanTravelTime="-1.00" meanOverlapTravelTime="-1.00" meanSpeed="-1.00" meanHaltsPerVehicle="-1.00" meanTimeLoss="-1.00" vehicleSum="0" meanSpeedWithin="5.23" meanHaltsPerVehicleWithin="4.35" meanDurationWithin="10.77" vehicleSumWithin="17" meanIntervalSpeedWithin="3.05" meanIntervalHaltsPerVehicleWithin="0.35" meanIntervalDurationWithin="1.00" meanTimeLossWithin="0.76"/>
    <interval begin="29.00" end="30.00" id="e1det_EW_1_0" nVehContrib="0" flow="0.00" occupancy="0.00" speed="-1.00" length="-1.00" nVehEntered="0"/>
    <interval begin="29.00" end="30.00" id="e1det_NS_1_0" nVehContrib="0" flow="0.00" occupancy="0.00" speed="-1.00" length="-1.00" nVehEntered="0"/>
    <interval begin="29.00" end="30.00" id="e1det_WE_1_0" nVehContrib="0" flow="0.00" occupancy="0.00" speed="-1.00" length="-1.00" nVehEntered="0"/>
   <interval begin="29.00" end="30.00" id="e3_gneJ1" meanTravelTime="-1.00" meanOverlapTravelTime="-1.00" meanSpeed="-1.00" meanHaltsPerVehicle="-1.00" meanTimeLoss="-1.00" vehicleSum="0" meanSpeedWithin="5.39" meanHaltsPerVehicleWithin="4.26" meanDurationWithin="10.70" vehicleSumWithin="19" meanIntervalSpeedWithin="3.69" meanIntervalHaltsPerVehicleWithin="0.37" meanIntervalDurationWithin="1.00" meanTimeLossWithin="0.70"/>
    <interval begin="30.00" end="31.00" id="e1det_EW_1_0" nVehContrib="0" flow="0.00" occupancy="0.00" speed="-1.00" length="-1.00" nVehEntered="0"/>
    <interval begin="30.00" end="31.00" id="e1det_NS_1_0" nVehContrib="0" flow="0.00" occupancy="0.00" speed="-1.00" length="-1.00" nVehEntered="0"/>
    <interval begin="30.00" end="31.00" id="e1det_WE_1_0" nVehContrib="0" flow="0.00" occupancy="0.00" speed="-1.00" length="-1.00" nVehEntered="0"/>
   <interval begin="30.00" end="31.00" id="e3_gneJ1" meanTravelTime="-1.00" meanOverlapTravelTime="-1.00" meanSpeed="-1.00" meanHaltsPerVehicle="-1.00" meanTimeLoss="-1.00" vehicleSum="0" meanSpeedWithin="5.03" meanHaltsPerVehicleWithin="4.58" meanDurationWithin="11.70" vehicleSumWithin="19" meanIntervalSpeedWithin="3.42" meanIntervalHaltsPerVehicleWithin="0.32" meanIntervalDurationWithin="1.00" meanTimeLossWithin="0.74"/>
    <interval begin="31.00" end="32.00" id="e1det_EW_1_0" nVehContrib="0" flow="0.00" occupancy="0.00" speed="-1.00" length="-1.00" nVehEntered="0"/>
    <interval begin="31.00" end="32.00" id="e1det_NS_1_0" nVehContrib="0" flow="0.00" occupancy="0.00" speed="-1.00" length="-1.00" nVehEntered="0"/>
    <interval begin="31.00" end="32.00" id="e1det_WE_1_0" nVehContrib="0" flow="0.00" occupancy="0.00" speed="-1.00" length="-1.00" nVehEntered="0"/>
   <interval begin="31.00" end="32.00" id="e3_gneJ1" meanTravelTime="16.55" meanOverlapTravelTime="16.94" meanSpeed="6.67" meanHaltsPerVehicle="4.00" meanTimeLoss="7.72" vehicleSum="1" meanSpeedWithin="4.61" meanHaltsPerVehicleWithin="5.11" meanDurationWithin="12.37" vehicleSumWithin="18" meanIntervalSpeedWithin="2.88" meanIntervalHaltsPerVehicleWithin="0.50" meanIntervalDurationWithin="1.00" meanTimeLossWithin="0.78"/>
    <interval begin="32.00" end="33.00" id="e1det_EW_1_0" nVehContrib="0" flow="0.00" occupancy="0.00" speed="-1.00" length="-1.00" nVehEntered="0"/>
    <interval begin="32.00" end="33.00" id="e1det_NS_1_0" nVehContrib="0" flow="0.00" occupancy="0.00" speed="-1.00" length="-1.00" nVehEntered="0"/>
    <interval begin="32.00" end="33.00" id="e1det_WE_1_0" nVehContrib="0" flow="0.00" occupancy="0.00" speed="-1.00" length="-1.00" nVehEntered="0"/>
   <interval begin="32.00" end="33.00" id="e3_gneJ1" meanTravelTime="-1.00" meanOverlapTravelTime="-1.00" meanSpeed="-1.00" meanHaltsPerVehicle="-1.00" meanTimeLoss="-1.00" vehicleSum="0" meanSpeedWithin="4.43" meanHaltsPerVehicleWithin="5.05" meanDurationWithin="12.22" vehicleSumWithin="20" meanIntervalSpeedWithin="3.14" meanIntervalHaltsPerVehicleWithin="0.45" meanIntervalDurationWithin="1.00" meanTimeLossWithin="0.71"/>
    <interval begin="33.00" end="34.00" id="e1det_EW_1_0" nVehContrib="0" flow="0.00" occupancy="0.00" speed="-1.00" length="-1.00" nVehEntered="0"/>