<?xml version="1.0" encoding="UTF-8"?>

<!-- generated on 03/04/19 14:05:36 by Eclipse SUMO GUI Version 1.0.1
<configuration xmlns:xsi="http://www.w3.org/2001/XMLSchema-instance" xsi:noNamespaceSchemaLocation="http://sumo.dlr.de/xsd/sumoConfiguration.xsd">

    <input>
        <net-file value="c:\users\isaia\onedrive\documents\github\gym-sumo-envs\gym_traffic\envs\config\DC2WayIntersection\2way.net.xml"/>
        <route-files value="tmp.rou.xml"/>
        <additional-files value="c:\users\isaia\onedrive\documents\github\gym-sumo-envs\gym_traffic\envs\config\DC2WayIntersection\2way.add.xml"/>
    </input>

    <traci_server>
        <remote-port value="52569"/>
    </traci_server>

    <gui_only>
        <quit-on-end value="true"/>
        <start value="true"/>
    </gui_only>

</configuration>
-->

<detector xmlns:xsi="http://www.w3.org/2001/XMLSchema-instance" xsi:noNamespaceSchemaLocation="http://sumo.dlr.de/xsd/det_e1_file.xsd">
    <interval begin="0.00" end="1.00" id="e1det_-6055187#2_0" nVehContrib="0" flow="0.00" occupancy="0.00" speed="-1.00" length="-1.00" nVehEntered="0"/>
    <interval begin="0.00" end="1.00" id="e1det_215306712#0_0" nVehContrib="0" flow="0.00" occupancy="0.00" speed="-1.00" length="-1.00" nVehEntered="0"/>
    <interval begin="0.00" end="1.00" id="e1det_6055187#0_0" nVehContrib="0" flow="0.00" occupancy="0.00" speed="-1.00" length="-1.00" nVehEntered="0"/>
    <interval begin="0.00" end="1.00" id="e1det_6055187#0_1" nVehContrib="0" flow="0.00" occupancy="0.00" speed="-1.00" length="-1.00" nVehEntered="0"/>
   <interval begin="0.00" end="1.00" id="e3_49765167" meanTravelTime="-1.00" meanOverlapTravelTime="-1.00" meanSpeed="-1.00" meanHaltsPerVehicle="-1.00" meanTimeLoss="-1.00" vehicleSum="0" meanSpeedWithin="-1.00" meanHaltsPerVehicleWithin="-1.00" meanDurationWithin="-1.00" vehicleSumWithin="0" meanIntervalSpeedWithin="-1.00" meanIntervalHaltsPerVehicleWithin="-1.00" meanIntervalDurationWithin="-1.00" meanTimeLossWithin="-1.00"/>
    <interval begin="1.00" end="2.00" id="e1det_-6055187#2_0" nVehContrib="0" flow="0.00" occupancy="0.00" speed="-1.00" length="-1.00" nVehEntered="0"/>
    <interval begin="1.00" end="2.00" id="e1det_215306712#0_0" nVehContrib="0" flow="0.00" occupancy="0.00" speed="-1.00" length="-1.00" nVehEntered="0"/>
    <interval begin="1.00" end="2.00" id="e1det_6055187#0_0" nVehContrib="0" flow="0.00" occupancy="0.00" speed="-1.00" length="-1.00" nVehEntered="0"/>
    <interval begin="1.00" end="2.00" id="e1det_6055187#0_1" nVehContrib="0" flow="0.00" occupancy="0.00" speed="-1.00" length="-1.00" nVehEntered="0"/>
   <interval begin="1.00" end="2.00" id="e3_49765167" meanTravelTime="-1.00" meanOverlapTravelTime="-1.00" meanSpeed="-1.00" meanHaltsPerVehicle="-1.00" meanTimeLoss="-1.00" vehicleSum="0" meanSpeedWithin="-1.00" meanHaltsPerVehicleWithin="-1.00" meanDurationWithin="-1.00" vehicleSumWithin="0" meanIntervalSpeedWithin="-1.00" meanIntervalHaltsPerVehicleWithin="-1.00" meanIntervalDurationWithin="-1.00" meanTimeLossWithin="-1.00"/>
    <interval begin="2.00" end="3.00" id="e1det_-6055187#2_0" nVehContrib="0" flow="0.00" occupancy="0.00" speed="-1.00" length="-1.00" nVehEntered="0"/>
    <interval begin="2.00" end="3.00" id="e1det_215306712#0_0" nVehContrib="0" flow="0.00" occupancy="0.00" speed="-1.00" length="-1.00" nVehEntered="0"/>
    <interval begin="2.00" end="3.00" id="e1det_6055187#0_0" nVehContrib="0" flow="0.00" occupancy="0.00" speed="-1.00" length="-1.00" nVehEntered="0"/>
    <interval begin="2.00" end="3.00" id="e1det_6055187#0_1" nVehContrib="0" flow="0.00" occupancy="0.00" speed="-1.00" length="-1.00" nVehEntered="0"/>
   <interval begin="2.00" end="3.00" id="e3_49765167" meanTravelTime="-1.00" meanOverlapTravelTime="-1.00" meanSpeed="-1.00" meanHaltsPerVehicle="-1.00" meanTimeLoss="-1.00" vehicleSum="0" meanSpeedWithin="-1.00" meanHaltsPerVehicleWithin="-1.00" meanDurationWithin="-1.00" vehicleSumWithin="0" meanIntervalSpeedWithin="-1.00" meanIntervalHaltsPerVehicleWithin="-1.00" meanIntervalDurationWithin="-1.00" meanTimeLossWithin="-1.00"/>
    <interval begin="3.00" end="4.00" id="e1det_-6055187#2_0" nVehContrib="0" flow="0.00" occupancy="0.00" speed="-1.00" length="-1.00" nVehEntered="0"/>
    <interval begin="3.00" end="4.00" id="e1det_215306712#0_0" nVehContrib="0" flow="0.00" occupancy="0.00" speed="-1.00" length="-1.00" nVehEntered="0"/>
    <interval begin="3.00" end="4.00" id="e1det_6055187#0_0" nVehContrib="0" flow="0.00" occupancy="0.00" speed="-1.00" length="-1.00" nVehEntered="0"/>
    <interval begin="3.00" end="4.00" id="e1det_6055187#0_1" nVehContrib="0" flow="0.00" occupancy="0.00" speed="-1.00" length="-1.00" nVehEntered="0"/>
   <interval begin="3.00" end="4.00" id="e3_49765167" meanTravelTime="-1.00" meanOverlapTravelTime="-1.00" meanSpeed="-1.00" meanHaltsPerVehicle="-1.00" meanTimeLoss="-1.00" vehicleSum="0" meanSpeedWithin="-1.00" meanHaltsPerVehicleWithin="-1.00" meanDurationWithin="-1.00" vehicleSumWithin="0" meanIntervalSpeedWithin="-1.00" meanIntervalHaltsPerVehicleWithin="-1.00" meanIntervalDurationWithin="-1.00" meanTimeLossWithin="-1.00"/>
    <interval begin="4.00" end="5.00" id="e1det_-6055187#2_0" nVehContrib="0" flow="0.00" occupancy="0.00" speed="-1.00" length="-1.00" nVehEntered="0"/>
    <interval begin="4.00" end="5.00" id="e1det_215306712#0_0" nVehContrib="0" flow="0.00" occupancy="0.00" speed="-1.00" length="-1.00" nVehEntered="0"/>
    <interval begin="4.00" end="5.00" id="e1det_6055187#0_0" nVehContrib="0" flow="0.00" occupancy="0.00" speed="-1.00" length="-1.00" nVehEntered="0"/>
    <interval begin="4.00" end="5.00" id="e1det_6055187#0_1" nVehContrib="0" flow="0.00" occupancy="0.00" speed="-1.00" length="-1.00" nVehEntered="0"/>
   <interval begin="4.00" end="5.00" id="e3_49765167" meanTravelTime="-1.00" meanOverlapTravelTime="-1.00" meanSpeed="-1.00" meanHaltsPerVehicle="-1.00" meanTimeLoss="-1.00" vehicleSum="0" meanSpeedWithin="-1.00" meanHaltsPerVehicleWithin="-1.00" meanDurationWithin="-1.00" vehicleSumWithin="0" meanIntervalSpeedWithin="-1.00" meanIntervalHaltsPerVehicleWithin="-1.00" meanIntervalDurationWithin="-1.00" meanTimeLossWithin="-1.00"/>
    <interval begin="5.00" end="6.00" id="e1det_-6055187#2_0" nVehContrib="0" flow="0.00" occupancy="0.00" speed="-1.00" length="-1.00" nVehEntered="0"/>
    <interval begin="5.00" end="6.00" id="e1det_215306712#0_0" nVehContrib="0" flow="0.00" occupancy="0.00" speed="-1.00" length="-1.00" nVehEntered="0"/>
    <interval begin="5.00" end="6.00" id="e1det_6055187#0_0" nVehContrib="0" flow="0.00" occupancy="0.00" speed="-1.00" length="-1.00" nVehEntered="0"/>
    <interval begin="5.00" end="6.00" id="e1det_6055187#0_1" nVehContrib="0" flow="0.00" occupancy="0.00" speed="-1.00" length="-1.00" nVehEntered="0"/>
   <interval begin="5.00" end="6.00" id="e3_49765167" meanTravelTime="-1.00" meanOverlapTravelTime="-1.00" meanSpeed="-1.00" meanHaltsPerVehicle="-1.00" meanTimeLoss="-1.00" vehicleSum="0" meanSpeedWithin="-1.00" meanHaltsPerVehicleWithin="-1.00" meanDurationWithin="-1.00" vehicleSumWithin="0" meanIntervalSpeedWithin="-1.00" meanIntervalHaltsPerVehicleWithin="-1.00" meanIntervalDurationWithin="-1.00" meanTimeLossWithin="-1.00"/>
    <interval begin="6.00" end="7.00" id="e1det_-6055187#2_0" nVehContrib="0" flow="0.00" occupancy="0.00" speed="-1.00" length="-1.00" nVehEntered="0"/>
    <interval begin="6.00" end="7.00" id="e1det_215306712#0_0" nVehContrib="0" flow="0.00" occupancy="0.00" speed="-1.00" length="-1.00" nVehEntered="0"/>
    <interval begin="6.00" end="7.00" id="e1det_6055187#0_0" nVehContrib="0" flow="0.00" occupancy="0.00" speed="-1.00" length="-1.00" nVehEntered="0"/>
    <interval begin="6.00" end="7.00" id="e1det_6055187#0_1" nVehContrib="0" flow="0.00" occupancy="0.00" speed="-1.00" length="-1.00" nVehEntered="0"/>
   <interval begin="6.00" end="7.00" id="e3_49765167" meanTravelTime="-1.00" meanOverlapTravelTime="-1.00" meanSpeed="-1.00" meanHaltsPerVehicle="-1.00" meanTimeLoss="-1.00" vehicleSum="0" meanSpeedWithin="-1.00" meanHaltsPerVehicleWithin="-1.00" meanDurationWithin="-1.00" vehicleSumWithin="0" meanIntervalSpeedWithin="-1.00" meanIntervalHaltsPerVehicleWithin="-1.00" meanIntervalDurationWithin="-1.00" meanTimeLossWithin="-1.00"/>
    <interval begin="7.00" end="8.00" id="e1det_-6055187#2_0" nVehContrib="0" flow="0.00" occupancy="0.00" speed="-1.00" length="-1.00" nVehEntered="0"/>
    <interval begin="7.00" end="8.00" id="e1det_215306712#0_0" nVehContrib="0" flow="0.00" occupancy="0.00" speed="-1.00" length="-1.00" nVehEntered="0"/>
    <interval begin="7.00" end="8.00" id="e1det_6055187#0_0" nVehContrib="0" flow="0.00" occupancy="0.00" speed="-1.00" length="-1.00" nVehEntered="0"/>
    <interval begin="7.00" end="8.00" id="e1det_6055187#0_1" nVehContrib="0" flow="0.00" occupancy="0.00" speed="-1.00" length="-1.00" nVehEntered="0"/>
   <interval begin="7.00" end="8.00" id="e3_49765167" meanTravelTime="-1.00" meanOverlapTravelTime="-1.00" meanSpeed="-1.00" meanHaltsPerVehicle="-1.00" meanTimeLoss="-1.00" vehicleSum="0" meanSpeedWithin="-1.00" meanHaltsPerVehicleWithin="-1.00" meanDurationWithin="-1.00" vehicleSumWithin="0" meanIntervalSpeedWithin="-1.00" meanIntervalHaltsPerVehicleWithin="-1.00" meanIntervalDurationWithin="-1.00" meanTimeLossWithin="-1.00"/>
    <interval begin="8.00" end="9.00" id="e1det_-6055187#2_0" nVehContrib="0" flow="0.00" occupancy="0.00" speed="-1.00" length="-1.00" nVehEntered="0"/>
    <interval begin="8.00" end="9.00" id="e1det_215306712#0_0" nVehContrib="0" flow="0.00" occupancy="0.00" speed="-1.00" length="-1.00" nVehEntered="0"/>
    <interval begin="8.00" end="9.00" id="e1det_6055187#0_0" nVehContrib="0" flow="0.00" occupancy="0.00" speed="-1.00" length="-1.00" nVehEntered="0"/>
    <interval begin="8.00" end="9.00" id="e1det_6055187#0_1" nVehContrib="0" flow="0.00" occupancy="0.00" speed="-1.00" length="-1.00" nVehEntered="0"/>
   <interval begin="8.00" end="9.00" id="e3_49765167" meanTravelTime="-1.00" meanOverlapTravelTime="-1.00" meanSpeed="-1.00" meanHaltsPerVehicle="-1.00" meanTimeLoss="-1.00" vehicleSum="0" meanSpeedWithin="14.64" meanHaltsPerVehicleWithin="0.00" meanDurationWithin="1.47" vehicleSumWithin="1" meanIntervalSpeedWithin="14.64" meanIntervalHaltsPerVehicleWithin="0.00" meanIntervalDurationWithin="1.00" meanTimeLossWithin="0.00"/>
    <interval begin="9.00" end="10.00" id="e1det_-6055187#2_0" nVehContrib="0" flow="0.00" occupancy="0.00" speed="-1.00" length="-1.00" nVehEntered="0"/>
    <interval begin="9.00" end="10.00" id="e1det_215306712#0_0" nVehContrib="0" flow="0.00" occupancy="0.00" speed="-1.00" length="-1.00" nVehEntered="0"/>
    <interval begin="9.00" end="10.00" id="e1det_6055187#0_0" nVehContrib="0" flow="0.00" occupancy="0.00" speed="-1.00" length="-1.00" nVehEntered="0"/>
    <interval begin="9.00" end="10.00" id="e1det_6055187#0_1" nVehContrib="0" flow="0.00" occupancy="0.00" speed="-1.00" length="-1.00" nVehEntered="0"/>
   <interval begin="9.00" end="10.00" id="e3_49765167" meanTravelTime="-1.00" meanOverlapTravelTime="-1.00" meanSpeed="-1.00" meanHaltsPerVehicle="-1.00" meanTimeLoss="-1.00" vehicleSum="0" meanSpeedWithin="14.25" meanHaltsPerVehicleWithin="0.00" meanDurationWithin="1.82" vehicleSumWithin="3" meanIntervalSpeedWithin="14.73" meanIntervalHaltsPerVehicleWithin="0.00" meanIntervalDurationWithin="1.00" meanTimeLossWithin="0.14"/>
    <interval begin="10.00" end="11.00" id="e1det_-6055187#2_0" nVehContrib="0" flow="0.00" occupancy="0.00" speed="-1.00" length="-1.00" nVehEntered="0"/>
    <interval begin="10.00" end="11.00" id="e1det_215306712#0_0" nVehContrib="0" flow="0.00" occupancy="0.00" speed="-1.00" length="-1.00" nVehEntered="0"/>
    <interval begin="10.00" end="11.00" id="e1det_6055187#0_0" nVehContrib="0" flow="0.00" occupancy="0.00" speed="-1.00" length="-1.00" nVehEntered="0"/>
    <interval begin="10.00" end="11.00" id="e1det_6055187#0_1" nVehContrib="0" flow="0.00" occupancy="0.00" speed="-1.00" length="-1.00" nVehEntered="0"/>
   <interval begin="10.00" end="11.00" id="e3_49765167" meanTravelTime="-1.00" meanOverlapTravelTime="-1.00" meanSpeed="-1.00" meanHaltsPerVehicle="-1.00" meanTimeLoss="-1.00" vehicleSum="0" meanSpeedWithin="14.05" meanHaltsPerVehicleWithin="0.00" meanDurationWithin="2.82" vehicleSumWithin="3" meanIntervalSpeedWithin="13.50" meanIntervalHaltsPerVehicleWithin="0.00" meanIntervalDurationWithin="1.00" meanTimeLossWithin="0.38"/>
    <interval begin="11.00" end="12.00" id="e1det_-6055187#2_0" nVehContrib="0" flow="0.00" occupancy="0.00" speed="-1.00" length="-1.00" nVehEntered="0"/>
    <interval begin="11.00" end="12.00" id="e1det_215306712#0_0" nVehContrib="0" flow="0.00" occupancy="0.00" speed="-1.00" length="-1.00" nVehEntered="0"/>
    <interval begin="11.00" end="12.00" id="e1det_6055187#0_0" nVehContrib="0" flow="0.00" occupancy="0.00" speed="-1.00" length="-1.00" nVehEntered="0"/>
    <interval begin="11.00" end="12.00" id="e1det_6055187#0_1" nVehContrib="0" flow="0.00" occupancy="0.00" speed="-1.00" length="-1.00" nVehEntered="0"/>
   <interval begin="11.00" end="12.00" id="e3_49765167" meanTravelTime="-1.00" meanOverlapTravelTime="-1.00" meanSpeed="-1.00" meanHaltsPerVehicle="-1.00" meanTimeLoss="-1.00" vehicleSum="0" meanSpeedWithin="13.98" meanHaltsPerVehicleWithin="0.00" meanDurationWithin="3.23" vehicleSumWithin="4" meanIntervalSpeedWithin="13.00" meanIntervalHaltsPerVehicleWithin="0.00" meanIntervalDurationWithin="1.00" meanTimeLossWithin="0.30"/>
    <interval begin="12.00" end="13.00" id="e1det_-6055187#2_0" nVehContrib="0" flow="0.00" occupancy="0.00" speed="-1.00" length="-1.00" nVehEntered="0"/>
    <interval begin="12.00" end="13.00" id="e1det_215306712#0_0" nVehContrib="0" flow="0.00" occupancy="0.00" speed="-1.00" length="-1.00" nVehEntered="0"/>
    <interval begin="12.00" end="13.00" id="e1det_6055187#0_0" nVehContrib="0" flow="0.00" occupancy="0.00" speed="-1.00" length="-1.00" nVehEntered="0"/>
    <interval begin="12.00" end="13.00" id="e1det_6055187#0_1" nVehContrib="0" flow="0.00" occupancy="0.00" speed="-1.00" length="-1.00" nVehEntered="0"/>
   <interval begin="12.00" end="13.00" id="e3_49765167" meanTravelTime="-1.00" meanOverlapTravelTime="-1.00" meanSpeed="-1.00" meanHaltsPerVehicle="-1.00" meanTimeLoss="-1.00" vehicleSum="0" meanSpeedWithin="13.94" meanHaltsPerVehicleWithin="0.00" meanDurationWithin="3.33" vehicleSumWithin="6" meanIntervalSpeedWithin="12.37" meanIntervalHaltsPerVehicleWithin="0.00" meanIntervalDurationWithin="1.00" meanTimeLossWithin="0.30"/>
    <interval begin="13.00" end="14.00" id="e1det_-6055187#2_0" nVehContrib="0" flow="0.00" occupancy="0.00" speed="-1.00" length="-1.00" nVehEntered="0"/>
    <interval begin="13.00" end="14.00" id="e1det_215306712#0_0" nVehContrib="0" flow="0.00" occupancy="0.00" speed="-1.00" length="-1.00" nVehEntered="0"/>
    <interval begin="13.00" end="14.00" id="e1det_6055187#0_0" nVehContrib="0" flow="0.00" occupancy="0.00" speed="-1.00" length="-1.00" nVehEntered="0"/>
    <interval begin="13.00" end="14.00" id="e1det_6055187#0_1" nVehContrib="0" flow="0.00" occupancy="0.00" speed="-1.00" length="-1.00" nVehEntered="0"/>
   <interval begin="13.00" end="14.00" id="e3_49765167" meanTravelTime="-1.00" meanOverlapTravelTime="-1.00" meanSpeed="-1.00" meanHaltsPerVehicle="-1.00" meanTimeLoss="-1.00" vehicleSum="0" meanSpeedWithin="13.34" meanHaltsPerVehicleWithin="0.00" meanDurationWithin="4.33" vehicleSumWithin="6" meanIntervalSpeedWithin="10.63" meanIntervalHaltsPerVehicleWithin="0.00" meanIntervalDurationWithin="1.00" meanTimeLossWithin="0.45"/>
    <interval begin="14.00" end="15.00" id="e1det_-6055187#2_0" nVehContrib="0" flow="0.00" occupancy="0.00" speed="-1.00" length="-1.00" nVehEntered="0"/>
    <interval begin="14.00" end="15.00" id="e1det_215306712#0_0" nVehContrib="0" flow="0.00" occupancy="0.00" speed="-1.00" length="-1.00" nVehEntered="0"/>
    <interval begin="14.00" end="15.00" id="e1det_6055187#0_0" nVehContrib="0" flow="0.00" occupancy="0.00" speed="-1.00" length="-1.00" nVehEntered="0"/>
    <interval begin="14.00" end="15.00" id="e1det_6055187#0_1" nVehContrib="0" flow="0.00" occupancy="0.00" speed="-1.00" length="-1.00" nVehEntered="0"/>
   <interval begin="14.00" end="15.00" id="e3_49765167" meanTravelTime="-1.00" meanOverlapTravelTime="-1.00" meanSpeed="-1.00" meanHaltsPerVehicle="-1.00" meanTimeLoss="-1.00" vehicleSum="0" meanSpeedWithin="12.64" meanHaltsPerVehicleWithin="0.00" meanDurationWithin="4.78" vehicleSumWithin="7" meanIntervalSpeedWithin="9.52" meanIntervalHaltsPerVehicleWithin="0.00" meanIntervalDurationWithin="1.00" meanTimeLossWithin="0.37"/>
    <interval begin="15.00" end="16.00" id="e1det_-6055187#2_0" nVehContrib="0" flow="0.00" occupancy="0.00" speed="-1.00" length="-1.00" nVehEntered="0"/>
    <interval begin="15.00" end="16.00" id="e1det_215306712#0_0" nVehContrib="0" flow="0.00" occupancy="0.00" speed="-1.00" length="-1.00" nVehEntered="0"/>
    <interval begin="15.00" end="16.00" id="e1det_6055187#0_0" nVehContrib="0" flow="0.00" occupancy="0.00" speed="-1.00" length="-1.00" nVehEntered="0"/>
    <interval begin="15.00" end="16.00" id="e1det_6055187#0_1" nVehContrib="0" flow="0.00" occupancy="0.00" speed="-1.00" length="-1.00" nVehEntered="0"/>
   <interval begin="15.00" end="16.00" id="e3_49765167" meanTravelTime="-1.00" meanOverlapTravelTime="-1.00" meanSpeed="-1.00" meanHaltsPerVehicle="-1.00" meanTimeLoss="-1.00" vehicleSum="0" meanSpeedWithin="12.63" meanHaltsPerVehicleWithin="0.00" meanDurationWithin="4.87" vehicleSumWithin="9" meanIntervalSpeedWithin="9.69" meanIntervalHaltsPerVehicleWithin="0.00" meanIntervalDurationWithin="1.00" meanTimeLossWithin="0.45"/>
    <interval begin="16.00" end="17.00" id="e1det_-6055187#2_0" nVehContrib="0" flow="0.00" occupancy="0.00" speed="-1.00" length="-1.00" nVehEntered="0"/>
    <interval begin="16.00" end="17.00" id="e1det_215306712#0_0" nVehContrib="0" flow="0.00" occupancy="0.00" speed="-1.00" length="-1.00" nVehEntered="0"/>
    <interval begin="16.00" end="17.00" id="e1det_6055187#0_0" nVehContrib="0" flow="0.00" occupancy="0.00" speed="-1.00" length="-1.00" nVehEntered="0"/>
    <interval begin="16.00" end="17.00" id="e1det_6055187#0_1" nVehContrib="0" flow="0.00" occupancy="0.00" speed="-1.00" length="-1.00" nVehEntered="0"/>
   <interval begin="16.00" end="17.00" id="e3_49765167" meanTravelTime="-1.00" meanOverlapTravelTime="-1.00" meanSpeed="-1.00" meanHaltsPerVehicle="-1.00" meanTimeLoss="-1.00" vehicleSum="0" meanSpeedWithin="11.96" meanHaltsPerVehicleWithin="0.11" meanDurationWithin="5.87" vehicleSumWithin="9" meanIntervalSpeedWithin="8.27" meanIntervalHaltsPerVehicleWithin="0.11" meanIntervalDurationWithin="1.00" meanTimeLossWithin="0.55"/>
    <interval begin="17.00" end="18.00" id="e1det_-6055187#2_0" nVehContrib="0" flow="0.00" occupancy="0.00" speed="-1.00" length="-1.00" nVehEntered="0"/>
    <interval begin="17.00" end="18.00" id="e1det_215306712#0_0" nVehContrib="0" flow="0.00" occupancy="0.00" speed="-1.00" length="-1.00" nVehEntered="0"/>
    <interval begin="17.00" end="18.00" id="e1det_6055187#0_0" nVehContrib="0" flow="0.00" occupancy="0.00" speed="-1.00" length="-1.00" nVehEntered="0"/>
    <interval begin="17.00" end="18.00" id="e1det_6055187#0_1" nVehContrib="0" flow="0.00" occupancy="0.00" speed="-1.00" length="-1.00" nVehEntered="0"/>
   <interval begin="17.00" end="18.00" id="e3_49765167" meanTravelTime="-1.00" meanOverlapTravelTime="-1.00" meanSpeed="-1.00" meanHaltsPerVehicle="-1.00" meanTimeLoss="-1.00" vehicleSum="0" meanSpeedWithin="11.37" meanHaltsPerVehicleWithin="0.30" meanDurationWithin="6.34" vehicleSumWithin="10" meanIntervalSpeedWithin="7.63" meanIntervalHaltsPerVehicleWithin="0.20" meanIntervalDurationWithin="1.00" meanTimeLossWithin="0.55"/>
    <interval begin="18.00" end="19.00" id="e1det_-6055187#2_0" nVehContrib="0" flow="0.00" occupancy="0.00" speed="-1.00" length="-1.00" nVehEntered="0"/>
    <interval begin="18.00" end="19.00" id="e1det_215306712#0_0" nVehContrib="0" flow="0.00" occupancy="0.00" speed="-1.00" length="-1.00" nVehEntered="0"/>
    <interval begin="18.00" end="19.00" id="e1det_6055187#0_0" nVehContrib="0" flow="0.00" occupancy="0.00" speed="-1.00" length="-1.00" nVehEntered="0"/>
    <interval begin="18.00" end="19.00" id="e1det_6055187#0_1" nVehContrib="0" flow="0.00" occupancy="0.00" speed="-1.00" length="-1.00" nVehEntered="0"/>
   <interval begin="18.00" end="19.00" id="e3_49765167" meanTravelTime="-1.00" meanOverlapTravelTime="-1.00" meanSpeed="-1.00" meanHaltsPerVehicle="-1.00" meanTimeLoss="-1.00" vehicleSum="0" meanSpeedWithin="11.16" meanHaltsPerVehicleWithin="0.50" meanDurationWithin="6.39" vehicleSumWithin="12" meanIntervalSpeedWithin="7.71" meanIntervalHaltsPerVehicleWithin="0.25" meanIntervalDurationWithin="1.00" meanTimeLossWithin="0.56"/>
    <interval begin="19.00" end="20.00" id="e1det_-6055187#2_0" nVehContrib="0" flow="0.00" occupancy="0.00" speed="-1.00" length="-1.00" nVehEntered="0"/>
    <interval begin="19.00" end="20.00" id="e1det_215306712#0_0" nVehContrib="0" flow="0.00" occupancy="0.00" speed="-1.00" length="-1.00" nVehEntered="0"/>
    <interval begin="19.00" end="20.00" id="e1det_6055187#0_0" nVehContrib="0" flow="0.00" occupancy="0.00" speed="-1.00" length="-1.00" nVehEntered="0"/>
    <interval begin="19.00" end="20.00" id="e1det_6055187#0_1" nVehContrib="0" flow="0.00" occupancy="0.00" speed="-1.00" length="-1.00" nVehEntered="0"/>
   <interval begin="19.00" end="20.00" id="e3_49765167" meanTravelTime="-1.00" meanOverlapTravelTime="-1.00" meanSpeed="-1.00" meanHaltsPerVehicle="-1.00" meanTimeLoss="-1.00" vehicleSum="0" meanSpeedWithin="10.57" meanHaltsPerVehicleWithin="0.75" meanDurationWithin="7.39" vehicleSumWithin="12" meanIntervalSpeedWithin="6.91" meanIntervalHaltsPerVehicleWithin="0.25" meanIntervalDurationWithin="1.00" meanTimeLossWithin="0.63"/>
    <interval begin="20.00" end="21.00" id="e1det_-6055187#2_0" nVehContrib="0" flow="0.00" occupancy="0.00" speed="-1.00" length="-1.00" nVehEntered="0"/>
    <interval begin="20.00" end="21.00" id="e1det_215306712#0_0" nVehContrib="0" flow="0.00" occupancy="0.00" speed="-1.00" length="-1.00" nVehEntered="0"/>
    <interval begin="20.00" end="21.00" id="e1det_6055187#0_0" nVehContrib="0" flow="0.00" occupancy="0.00" speed="-1.00" length="-1.00" nVehEntered="0"/>
    <interval begin="20.00" end="21.00" id="e1det_6055187#0_1" nVehContrib="0" flow="0.00" occupancy="0.00" speed="-1.00" length="-1.00" nVehEntered="0"/>
   <interval begin="20.00" end="21.00" id="e3_49765167" meanTravelTime="-1.00" meanOverlapTravelTime="-1.00" meanSpeed="-1.00" meanHaltsPerVehicle="-1.00" meanTimeLoss="-1.00" vehicleSum="0" meanSpeedWithin="10.26" meanHaltsPerVehicleWithin="1.00" meanDurationWithin="7.88" vehicleSumWithin="13" meanIntervalSpeedWithin="6.40" meanIntervalHaltsPerVehicleWithin="0.31" meanIntervalDurationWithin="1.00" meanTimeLossWithin="0.62"/>
    <interval begin="21.00" end="22.00" id="e1det_-6055187#2_0" nVehContrib="0" flow="0.00" occupancy="0.00" speed="-1.00" length="-1.00" nVehEntered="0"/>
    <interval begin="21.00" end="22.00" id="e1det_215306712#0_0" nVehContrib="0" flow="0.00" occupancy="0.00" speed="-1.00" length="-1.00" nVehEntered="0"/>
    <interval begin="21.00" end="22.00" id="e1det_6055187#0_0" nVehContrib="0" flow="0.00" occupancy="0.00" speed="-1.00" length="-1.00" nVehEntered="0"/>
    <interval begin="21.00" end="22.00" id="e1det_6055187#0_1" nVehContrib="0" flow="0.00" occupancy="0.00" speed="-1.00" length="-1.00" nVehEntered="0"/>
   <interval begin="21.00" end="22.00" id="e3_49765167" meanTravelTime="-1.00" meanOverlapTravelTime="-1.00" meanSpeed="-1.00" meanHaltsPerVehicle="-1.00" meanTimeLoss="-1.00" vehicleSum="0" meanSpeedWithin="10.43" meanHaltsPerVehicleWithin="1.27" meanDurationWithin="7.93" vehicleSumWithin="15" meanIntervalSpeedWithin="6.92" meanIntervalHaltsPerVehicleWithin="0.40" meanIntervalDurationWithin="1.00" meanTimeLossWithin="0.60"/>
    <interval begin="22.00" end="23.00" id="e1det_-6055187#2_0" nVehContrib="0" flow="0.00" occupancy="0.00" speed="-1.00" length="-1.00" nVehEntered="0"/>
    <interval begin="22.00" end="23.00" id="e1det_215306712#0_0" nVehContrib="0" flow="0.00" occupancy="0.00" speed="-1.00" length="-1.00" nVehEntered="0"/>
    <interval begin="22.00" end="23.00" id="e1det_6055187#0_0" nVehContrib="0" flow="0.00" occupancy="0.00" speed="-1.00" length="-1.00" nVehEntered="0"/>
    <interval begin="22.00" end="23.00" id="e1det_6055187#0_1" nVehContrib="0" flow="0.00" occupancy="0.00" speed="-1.00" length="-1.00" nVehEntered="0"/>
   <interval begin="22.00" end="23.00" id="e3_49765167" meanTravelTime="13.31" meanOverlapTravelTime="13.58" meanSpeed="10.13" meanHaltsPerVehicle="0.00" meanTimeLoss="8.95" vehicleSum="1" meanSpeedWithin="9.58" meanHaltsPerVehicleWithin="1.86" meanDurationWithin="8.47" vehicleSumWithin="14" meanIntervalSpeedWithin="4.71" meanIntervalHaltsPerVehicleWithin="0.50" meanIntervalDurationWithin="1.00" meanTimeLossWithin="0.72"/>
    <interval begin="23.00" end="24.00" id="e1det_-6055187#2_0" nVehContrib="0" flow="0.00" occupancy="0.00" speed="-1.00" length="-1.00" nVehEntered="0"/>
    <interval begin="23.00" end="24.00" id="e1det_215306712#0_0" nVehContrib="0" flow="0.00" occupancy="0.00" speed="-1.00" length="-1.00" nVehEntered="0"/>
    <interval begin="23.00" end="24.00" id="e1det_6055187#0_0" nVehContrib="0" flow="0.00" occupancy="0.00" speed="-1.00" length="-1.00" nVehEntered="0"/>
    <interval begin="23.00" end="24.00" id="e1det_6055187#0_1" nVehContrib="0" flow="0.00" occupancy="0.00" speed="-1.00" length="-1.00" nVehEntered="0"/>
   <interval begin="23.00" end="24.00" id="e3_49765167" meanTravelTime="-1.00" meanOverlapTravelTime="-1.00" meanSpeed="-1.00" meanHaltsPerVehicle="-1.00" meanTimeLoss="-1.00" vehicleSum="0" meanSpeedWithin="9.49" meanHaltsPerVehicleWithin="2.13" meanDurationWithin="8.45" vehicleSumWithin="16" meanIntervalSpeedWithin="4.84" meanIntervalHaltsPerVehicleWithin="0.50" meanIntervalDurationWithin="1.00" meanTimeLossWithin="0.69"/>
    <interval begin="24.00" end="25.00" id="e1det_-6055187#2_0" nVehContrib="0" flow="0.00" occupancy="0.00" speed="-1.00" length="-1.00" nVehEntered="0"/>
    <interval begin="24.00" end="25.00" id="e1det_215306712#0_0" nVehContrib="0" flow="0.00" occupancy="0.00" speed="-1.00" length="-1.00" nVehEntered="0"/>
    <interval begin="24.00" end="25.00" id="e1det_6055187#0_0" nVehContrib="0" flow="0.00" occupancy="0.00" speed="-1.00" length="-1.00" nVehEntered="0"/>
    <interval begin="24.00" end="25.00" id="e1det_6055187#0_1" nVehContrib="0" flow="0.00" occupancy="0.00" speed="-1.00" length="-1.00" nVehEntered="0"/>
   <interval begin="24.00" end="25.00" id="e3_49765167" meanTravelTime="-1.00" meanOverlapTravelTime="-1.00" meanSpeed="-1.00" meanHaltsPerVehicle="-1.00" meanTimeLoss="-1.00" vehicleSum="0" meanSpeedWithin="8.96" meanHaltsPerVehicleWithin="2.35" meanDurationWithin="8.97" vehicleSumWithin="17" meanIntervalSpeedWithin="4.74" meanIntervalHaltsPerVehicleWithin="0.35" meanIntervalDurationWithin="1.00" meanTimeLossWithin="0.72"/>
    <interval begin="25.00" end="26.00" id="e1det_-6055187#2_0" nVehContrib="0" flow="0.00" occupancy="0.00" speed="-1.00" length="-1.00" nVehEntered="0"/>
    <interval begin="25.00" end="26.00" id="e1det_215306712#0_0" nVehContrib="0" flow="0.00" occupancy="0.00" speed="-1.00" length="-1.00" nVehEntered="0"/>
    <interval begin="25.00" end="26.00" id="e1det_6055187#0_0" nVehContrib="0" flow="0.00" occupancy="0.00" speed="-1.00" length="-1.00" nVehEntered="0"/>
    <interval begin="25.00" end="26.00" id="e1det_6055187#0_1" nVehContrib="0" flow="0.00" occupancy="0.00" speed="-1.00" length="-1.00" nVehEntered="0"/>
   <interval begin="25.00" end="26.00" id="e3_49765167" meanTravelTime="-1.00" meanOverlapTravelTime="-1.00" meanSpeed="-1.00" meanHaltsPerVehicle="-1.00" meanTimeLoss="-1.00" vehicleSum="0" meanSpeedWithin="8.27" meanHaltsPerVehicleWithin="2.76" meanDurationWithin="9.97" vehicleSumWithin="17" meanIntervalSpeedWithin="4.36" meanIntervalHaltsPerVehicleWithin="0.41" meanIntervalDurationWithin="1.00" meanTimeLossWithin="0.70"/>
    <interval begin="26.00" end="27.00" id="e1det_-6055187#2_0" nVehContrib="0" flow="0.00" occupancy="0.00" speed="-1.00" length="-1.00" nVehEntered="0"/>
    <interval begin="26.00" end="27.00" id="e1det_215306712#0_0" nVehContrib="0" flow="0.00" occupancy="0.00" speed="-1.00" length="-1.00" nVehEntered="0"/>
    <interval begin="26.00" end="27.00" id="e1det_6055187#0_0" nVehContrib="0" flow="0.00" occupancy="0.00" speed="-1.00" length="-1.00" nVehEntered="0"/>
    <interval begin="26.00" end="27.00" id="e1det_6055187#0_1" nVehContrib="0" flow="0.00" occupancy="0.00" speed="-1.00" length="-1.00" nVehEntered="0"/>
   <interval begin="26.00" end="27.00" id="e3_49765167" meanTravelTime="-1.00" meanOverlapTravelTime="-1.00" meanSpeed="-1.00" meanHaltsPerVehicle="-1.00" meanTimeLoss="-1.00" vehicleSum="0" meanSpeedWithin="8.10" meanHaltsPerVehicleWithin="3.00" meanDurationWithin="10.46" vehicleSumWithin="18" meanIntervalSpeedWithin="5.15" meanIntervalHaltsPerVehicleWithin="0.39" meanIntervalDurationWithin="1.00" meanTimeLossWithin="0.65"/>
    <interval begin="27.00" end="28.00" id="e1det_-6055187#2_0" nVehContrib="0" flow="0.00" occupancy="0.00" speed="-1.00" length="-1.00" nVehEntered="0"/>
    <interval begin="27.00" end="28.00" id="e1det_215306712#0_0" nVehContrib="0" flow="0.00" occupancy="0.00" speed="-1.00" length="-1.00" nVehEntered="0"/>
    <interval begin="27.00" end="28.00" id="e1det_6055187#0_0" nVehContrib="0" flow="0.00" occupancy="0.00" speed="-1.00" length="-1.00" nVehEntered="0"/>
    <interval begin="27.00" end="28.00" id="e1det_6055187#0_1" nVehContrib="0" flow="0.00" occupancy="0.00" speed="-1.00" length="-1.00" nVehEntered="0"/>